 Gaussian 09, Revision D.01,
 Gaussian 09:  EM64L-G09RevD.01 24-Apr-2013

 ----------------------------------------------------------------------
 #p B3LYP/gen gfinput pseudo=read Integral(Grid=UltraFine,Acc2E=12) scf
 =maxcycle=200 Polar=(DCSHG) CPHF=RdFreq scrf=(iefpcm,read,solvent=n,n-
 DiMethylFormamide)
 ----------------------------------------------------------------------

 ------------------------------
 Primeira Hiperpolarizabilidade
 ------------------------------
 Symbolic Z-matrix:
 Charge =  0 Multiplicity = 1

                         Standard orientation:
 ---------------------------------------------------------------------
 Center     Atomic      Atomic             Coordinates (Angstroms)
 Number     Number       Type             X           Y           Z
 ---------------------------------------------------------------------
      1         78           0       -1.008098   -0.002554    0.023564
      2          6           0        1.040778    0.006667    0.073725
      3          7           0       -1.351872   -2.030588    0.021851
      4          7           0       -1.371945    2.022246    0.008714
      5          6           0       -0.428755    2.975399    0.046602
      6          6           0       -0.398749   -2.973631    0.063676
      7          6           0       -2.709059    2.370497   -0.042286
      8          6           0       -2.685437   -2.392870   -0.022148
      9          6           0       -3.612802   -1.258328   -0.063032
     10          6           0       -3.625038    1.226485   -0.074159
     11          6           0       -5.026887    1.184638   -0.123314
     12          6           0       -3.072336    3.724957   -0.058798
     13          6           0       -2.092344    4.709726   -0.020417
     14          6           0       -0.744979    4.330839    0.035451
     15          6           0       -5.014989   -1.230646   -0.112194
     16          6           0       -5.723602   -0.026574   -0.142658
     17          6           0       -3.034925   -3.751150   -0.020208
     18          6           0       -2.044755   -4.725434    0.024916
     19          1           0       -4.086756   -4.028898   -0.051962
     20          6           0       -0.700943   -4.332187    0.066180
     21          6           0       -2.958548   -0.012536   -0.045884
     22          9           0       -5.721231   -2.369921   -0.130392
     23          9           0       -5.744306    2.316719   -0.152261
     24          1           0        0.628075   -2.608296    0.098527
     25          6           0        0.398456   -5.362280    0.086817
     26          1           0       -2.317869   -5.782506    0.030833
     27          1           0        0.601877    2.621014    0.083278
     28          6           0        0.341059    5.372771    0.108014
     29          1           0       -4.126636    3.991341   -0.102923
     30          1           0       -2.375743    5.763900   -0.037457
     31          6           0        2.277388    0.010047    0.060642
     32          6           0        3.707803    0.013889    0.028194
     33          6           0        4.447523    1.218101   -0.023999
     34          6           0        4.455580   -1.186484    0.034584
     35          6           0        5.837091    1.229508   -0.071927
     36          6           0        5.845235   -1.190853   -0.012570
     37          6           0        6.585491    0.021156   -0.070201
     38          7           0        7.961809    0.024529   -0.122795
     39          1           0       -6.813007   -0.032125   -0.180343
     40          9           0        0.164122    6.329015   -0.821111
     41          9           0        1.561974    4.845788   -0.078463
     42          9           0        0.351159    5.992134    1.303574
     43          9           0        1.600000   -4.815854    0.333542
     44          9           0        0.487574   -6.010889   -1.089708
     45          9           0        0.175966   -6.297350    1.027787
     46          1           0        3.910527    2.170366   -0.029839
     47          1           0        6.346824    2.191499   -0.112978
     48          1           0        6.361574   -2.150201   -0.005956
     49          1           0        3.925014   -2.141478    0.075718
     50          6           0        8.685382    1.280513   -0.185956
     51          6           0        8.693844   -1.228146   -0.124189
     52          1           0        8.491668    1.917745    0.696229
     53          1           0        8.422404    1.868758   -1.084316
     54          1           0        9.762669    1.077961   -0.222194
     55          1           0        8.432484   -1.862719   -0.990876
     56          1           0        8.506737   -1.821220    0.789689
     57          1           0        9.769630   -1.020470   -0.173730
 ---------------------------------------------------------------------

 SCF Done:  E(RB3LYP) =  -2159.53180257     A.U. after   16 cycles

 The electronic state is 1-A.
 Alpha  occ. eigenvalues --  -24.75744 -24.75743 -24.75489 -24.75484 -24.75354
 Alpha  occ. eigenvalues --  -24.75348 -24.74603 -24.74602 -14.41764 -14.41763
 Alpha  occ. eigenvalues --  -14.35754 -10.45984 -10.45983 -10.30739 -10.30738
 Alpha  occ. eigenvalues --  -10.27600 -10.27598 -10.26411 -10.26402 -10.24182
 Alpha  occ. eigenvalues --  -10.24180 -10.24075 -10.24071 -10.23101 -10.22683
 Alpha  occ. eigenvalues --  -10.22679 -10.21886 -10.21884 -10.21480 -10.21476
 Alpha  occ. eigenvalues --  -10.21438 -10.20400 -10.19877 -10.19098 -10.19096
 Alpha  occ. eigenvalues --  -10.18489 -10.18488 -10.15771 -10.15028  -3.93545
 Alpha  occ. eigenvalues --   -2.16231  -2.15881  -2.12749  -1.33933  -1.33932
 Alpha  occ. eigenvalues --   -1.26250  -1.26213  -1.25164  -1.25161  -1.24777
 Alpha  occ. eigenvalues --   -1.24775  -1.00170  -0.99786  -0.95517  -0.89319
 Alpha  occ. eigenvalues --   -0.85948  -0.85877  -0.85031  -0.83510  -0.82264
 Alpha  occ. eigenvalues --   -0.78079  -0.78039  -0.76836  -0.75197  -0.73579
 Alpha  occ. eigenvalues --   -0.73131  -0.72188  -0.70923  -0.68702  -0.68635
 Alpha  occ. eigenvalues --   -0.67640  -0.67273  -0.66076  -0.64173  -0.63552
 Alpha  occ. eigenvalues --   -0.61670  -0.61644  -0.61641  -0.61469  -0.60694
 Alpha  occ. eigenvalues --   -0.60433  -0.60228  -0.58743  -0.58316  -0.56126
 Alpha  occ. eigenvalues --   -0.55937  -0.54084  -0.53719  -0.52817  -0.52292
 Alpha  occ. eigenvalues --   -0.50581  -0.50573  -0.49590  -0.49453  -0.49431
 Alpha  occ. eigenvalues --   -0.49181  -0.49155  -0.48674  -0.48601  -0.48223
 Alpha  occ. eigenvalues --   -0.48207  -0.47923  -0.46585  -0.46489  -0.46125
 Alpha  occ. eigenvalues --   -0.46063  -0.45851  -0.45411  -0.44887  -0.44821
 Alpha  occ. eigenvalues --   -0.44810  -0.44767  -0.44754  -0.43990  -0.43169
 Alpha  occ. eigenvalues --   -0.43163  -0.42706  -0.42125  -0.41460  -0.41288
 Alpha  occ. eigenvalues --   -0.40848  -0.40536  -0.40099  -0.39562  -0.39095
 Alpha  occ. eigenvalues --   -0.38840  -0.38635  -0.37956  -0.37843  -0.37650
 Alpha  occ. eigenvalues --   -0.36034  -0.34621  -0.33941  -0.33386  -0.33032
 Alpha  occ. eigenvalues --   -0.32027  -0.31057  -0.29967  -0.29718  -0.28970
 Alpha  occ. eigenvalues --   -0.26410  -0.25782  -0.25729  -0.24683  -0.24613
 Alpha  occ. eigenvalues --   -0.23247  -0.23066  -0.18321
 Alpha virt. eigenvalues --   -0.09492  -0.09095  -0.06062  -0.05657  -0.02757
 Alpha virt. eigenvalues --   -0.02050  -0.01353  -0.00901  -0.00887  -0.00087
 Alpha virt. eigenvalues --    0.00210   0.00478   0.00581   0.00877   0.01436

 Mulliken charges:
               1
     1  Pt   0.818963
     2  C   -0.373855
     3  N    0.093824
     4  N    0.093772
     5  C   -0.197153
     6  C   -0.196299
     7  C    0.080944
     8  C    0.078384
     9  C    0.005643
    10  C    0.004090
    11  C    0.403249
    12  C   -0.201545
    13  C    0.070896
    14  C   -0.641572
    15  C    0.402014
    16  C   -0.496938
    17  C   -0.203977
    18  C    0.080794
    19  H    0.175284
    20  C   -0.649068
    21  C   -0.148418
    22  F   -0.445620
    23  F   -0.445572
    24  H    0.148635
    25  C    1.610967
    26  H    0.175461
    27  H    0.150998
    28  C    1.607120
    29  H    0.175299
    30  H    0.175463
    31  C   -0.539300
    32  C    0.143132
    33  C   -0.204948
    34  C   -0.206648
    35  C   -0.293936
    36  C   -0.299302
    37  C    0.387629
    38  N    0.116366
    39  H    0.178789
    40  F   -0.335340
    41  F   -0.397468
    42  F   -0.318715
    43  F   -0.397593
    44  F   -0.321302
    45  F   -0.332896
    46  H    0.084845
    47  H    0.132392
    48  H    0.132674
    49  H    0.083940
    50  C   -0.485800
    51  C   -0.486086
    52  H    0.173130
    53  H    0.173527
    54  H    0.157285
    55  H    0.173454
    56  H    0.173215
    57  H    0.157172
 Sum of Mulliken charges =   0.00000

 Dipole moment (field-independent basis, Debye):
    X=             -3.9572    Y=             -0.0289    Z=             -0.4505  Tot=              3.9828
 Quadrupole moment (field-independent basis, Debye-Ang):
   XX=           -170.0589   YY=           -226.0914   ZZ=           -252.9691
   XY=              0.1681   XZ=             -1.4253   YZ=             -1.0071

  Exact polarizability: 983.371   0.451 758.640   3.297  -2.577 314.776
 Approx polarizability:1047.222   0.508 829.700   5.332  -3.244 369.949

 Normal termination of Gaussian 09 at Sat May 20 02:51:29 2023.
