 Gaussian 09, Revision D.01,
 Gaussian 09:  EM64L-G09RevD.01 24-Apr-2013

 ----------------------------------------------------------------------
 #p B3LYP/gen gfinput pseudo=read Integral(Grid=UltraFine,Acc2E=12) scf
 =maxcycle=200 Polar=(DCSHG) CPHF=RdFreq scrf=(iefpcm,read,solvent=n,n-
 DiMethylFormamide)
 ----------------------------------------------------------------------

 ------------------------------
 Primeira Hiperpolarizabilidade
 ------------------------------
 Symbolic Z-matrix:
 Charge =  0 Multiplicity = 1

                         Standard orientation:
 ---------------------------------------------------------------------
 Center     Atomic      Atomic             Coordinates (Angstroms)
 Number     Number       Type             X           Y           Z
 ---------------------------------------------------------------------
      1         78           0       -1.008098   -0.002554    0.023564
      2          6           0        1.040778    0.006667    0.073725
      3          7           0       -1.351872   -2.030588    0.021851
      4          7           0       -1.371945    2.022246    0.008714
      5          6           0       -0.428755    2.975399    0.046602
      6          6           0       -0.398749   -2.973631    0.063676
      7          6           0       -2.709059    2.370497   -0.042286
      8          6           0       -2.685437   -2.392870   -0.022148
      9          6           0       -3.612802   -1.258328   -0.063032
     10          6           0       -3.625038    1.226485   -0.074159
     11          6           0       -5.026887    1.184638   -0.123314
     12          6           0       -3.072336    3.724957   -0.058798
     13          6           0       -2.092344    4.709726   -0.020417
     14          6           0       -0.744979    4.330839    0.035451
     15          6           0       -5.014989   -1.230646   -0.112194
     16          6           0       -5.723602   -0.026574   -0.142658
     17          6           0       -3.034925   -3.751150   -0.020208
     18          6           0       -2.044755   -4.725434    0.024916
     19          1           0       -4.086756   -4.028898   -0.051962
     20          6           0       -0.700943   -4.332187    0.066180
     21          6           0       -2.958548   -0.012536   -0.045884
     22          9           0       -5.721231   -2.369921   -0.130392
     23          9           0       -5.744306    2.316719   -0.152261
     24          1           0        0.628075   -2.608296    0.098527
     25          6           0        0.398456   -5.362280    0.086817
     26          1           0       -2.317869   -5.782506    0.030833
     27          1           0        0.601877    2.621014    0.083278
     28          6           0        0.341059    5.372771    0.108014
     29          1           0       -4.126636    3.991341   -0.102923
     30          1           0       -2.375743    5.763900   -0.037457
     31          6           0        2.277388    0.010047    0.060642
     32          6           0        3.707803    0.013889    0.028194
     33          6           0        4.447523    1.218101   -0.023999
     34          6           0        4.455580   -1.186484    0.034584
     35          6           0        5.837091    1.229508   -0.071927
     36          6           0        5.845235   -1.190853   -0.012570
     37          6           0        6.585491    0.021156   -0.070201
     38          7           0        7.961809    0.024529   -0.122795
     39          1           0       -6.813007   -0.032125   -0.180343
     40          9           0        0.164122    6.329015   -0.821111
     41          9           0        1.561974    4.845788   -0.078463
     42          9           0        0.351159    5.992134    1.303574
     43          9           0        1.600000   -4.815854    0.333542
     44          9           0        0.487574   -6.010889   -1.089708
     45          9           0        0.175966   -6.297350    1.027787
     46          1           0        3.910527    2.170366   -0.029839
     47          1           0        6.346824    2.191499   -0.112978
     48          1           0        6.361574   -2.150201   -0.005956
     49          1           0        3.925014   -2.141478    0.075718
     50          6           0        8.685382    1.280513   -0.185956
     51          6           0        8.693844   -1.228146   -0.124189
     52          1           0        8.491668    1.917745    0.696229
     53          1           0        8.422404    1.868758   -1.084316
     54          1           0        9.762669    1.077961   -0.222194
     55          1           0        8.432484   -1.862719   -0.990876
     56          1           0        8.506737   -1.821220    0.789689
     57          1           0        9.769630   -1.020470   -0.173730
 ---------------------------------------------------------------------

 SCF Done:  E(RB3LYP) =  -2159.40758236     A.U. after   16 cycles

 The electronic state is 1-A.
 Alpha  occ. eigenvalues --  -24.73469 -24.73466 -24.72999 -24.72986 -24.72822
 Alpha  occ. eigenvalues --  -24.72821 -24.72752 -24.72742 -14.41231 -14.41229
 Alpha  occ. eigenvalues --  -14.35043 -10.44492 -10.44491 -10.30038 -10.30038
 Alpha  occ. eigenvalues --  -10.27069 -10.27066 -10.25906 -10.25897 -10.23477
 Alpha  occ. eigenvalues --  -10.23472 -10.23272 -10.23270 -10.22443 -10.22090
 Alpha  occ. eigenvalues --  -10.22086 -10.21155 -10.21153 -10.21082 -10.21079
 Alpha  occ. eigenvalues --  -10.20643 -10.19783 -10.19078 -10.18352 -10.18351
 Alpha  occ. eigenvalues --  -10.17710 -10.17709 -10.14904 -10.14198  -3.93052
 Alpha  occ. eigenvalues --   -2.15766  -2.15406  -2.12236  -1.31743  -1.31742
 Alpha  occ. eigenvalues --   -1.24677  -1.24633  -1.23019  -1.23016  -1.22487
 Alpha  occ. eigenvalues --   -1.22485  -0.99523  -0.99132  -0.94764  -0.88551
 Alpha  occ. eigenvalues --   -0.85061  -0.85012  -0.84146  -0.82801  -0.81517
 Alpha  occ. eigenvalues --   -0.77101  -0.77079  -0.75999  -0.74430  -0.72171
 Alpha  occ. eigenvalues --   -0.71638  -0.71636  -0.70016  -0.67880  -0.67214
 Alpha  occ. eigenvalues --   -0.66833  -0.65927  -0.65302  -0.63093  -0.62453
 Alpha  occ. eigenvalues --   -0.59718  -0.59653  -0.59649  -0.59341  -0.59340
 Alpha  occ. eigenvalues --   -0.59268  -0.58846  -0.57882  -0.57234  -0.55129
 Alpha  occ. eigenvalues --   -0.54918  -0.52974  -0.52815  -0.51918  -0.51322
 Alpha  occ. eigenvalues --   -0.49859  -0.49205  -0.48598  -0.47980  -0.47895
 Alpha  occ. eigenvalues --   -0.47849  -0.47521  -0.47197  -0.46947  -0.46913
 Alpha  occ. eigenvalues --   -0.46641  -0.46468  -0.45945  -0.45616  -0.45047
 Alpha  occ. eigenvalues --   -0.44939  -0.44712  -0.44520  -0.44192  -0.43222
 Alpha  occ. eigenvalues --   -0.42938  -0.42918  -0.42792  -0.42742  -0.41926
 Alpha  occ. eigenvalues --   -0.41424  -0.40907  -0.40900  -0.40217  -0.40152
 Alpha  occ. eigenvalues --   -0.40077  -0.39739  -0.39363  -0.38552  -0.38284
 Alpha  occ. eigenvalues --   -0.37721  -0.37663  -0.37537  -0.37023  -0.36824
 Alpha  occ. eigenvalues --   -0.35417  -0.33912  -0.33242  -0.32677  -0.32295
 Alpha  occ. eigenvalues --   -0.31245  -0.30241  -0.29366  -0.29063  -0.28256
 Alpha  occ. eigenvalues --   -0.25771  -0.24996  -0.24842  -0.24276  -0.23858
 Alpha  occ. eigenvalues --   -0.22414  -0.22311  -0.17492
 Alpha virt. eigenvalues --   -0.08618  -0.08110  -0.04962  -0.04651  -0.01707
 Alpha virt. eigenvalues --   -0.00623   0.00285   0.00477   0.01727   0.02930
 Alpha virt. eigenvalues --    0.03929   0.04247   0.07443   0.07722   0.08602

 Mulliken charges:
               1
     1  Pt   0.745424
     2  C   -0.461418
     3  N   -0.623686
     4  N   -0.623607
     5  C    0.125220
     6  C    0.125309
     7  C    0.317462
     8  C    0.317468
     9  C    0.022504
    10  C    0.022665
    11  C    0.378613
    12  C   -0.135139
    13  C   -0.059196
    14  C   -0.103783
    15  C    0.378594
    16  C   -0.247531
    17  C   -0.135131
    18  C   -0.059232
    19  H    0.144272
    20  C   -0.103790
    21  C   -0.386250
    22  F   -0.301101
    23  F   -0.301106
    24  H    0.168045
    25  C    0.897492
    26  H    0.155281
    27  H    0.168109
    28  C    0.897368
    29  H    0.144265
    30  H    0.155243
    31  C   -0.074714
    32  C    0.003694
    33  C   -0.126463
    34  C   -0.126530
    35  C   -0.159773
    36  C   -0.159772
    37  C    0.307013
    38  N   -0.451145
    39  H    0.141828
    40  F   -0.290907
    41  F   -0.289216
    42  F   -0.287903
    43  F   -0.289251
    44  F   -0.288081
    45  F   -0.290877
    46  H    0.094891
    47  H    0.097309
    48  H    0.097308
    49  H    0.094903
    50  C   -0.176218
    51  C   -0.176203
    52  H    0.120068
    53  H    0.119838
    54  H    0.123965
    55  H    0.119883
    56  H    0.120026
    57  H    0.123963
 Sum of Mulliken charges =   0.00000

 Dipole moment (field-independent basis, Debye):
    X=             -3.7568    Y=             -0.0273    Z=             -0.4142  Tot=              3.7797
 Quadrupole moment (field-independent basis, Debye-Ang):
   XX=           -161.8519   YY=           -213.0447   ZZ=           -246.2677
   XY=              0.1557   XZ=             -1.1344   YZ=             -1.0563

  Exact polarizability: 922.770   0.485 684.451   2.870  -3.137 212.047
 Approx polarizability:1007.315   0.541 775.074   5.500  -4.013 260.540

 Normal termination of Gaussian 09 at Sat May 20 03:21:16 2023.
