 Gaussian 16, Revision C.01,
 Gaussian 16:  EM64L-G16RevC.01  3-Jul-2019

 ----------------------------------------------------------------------
 #p B1B95/gen gfinput pseudo=read scf=maxcycle=200 Polar=(DCSHG) CPHF=R
 dFreq scrf=(iefpcm,read,solvent=n,n-DiMethylFormamide)
 ----------------------------------------------------------------------

 ------------------------------
 Primeira Hiperpolarizabilidade
 ------------------------------
 Symbolic Z-matrix:
 Charge =  0 Multiplicity = 1

                         Standard orientation:
 ---------------------------------------------------------------------
 Center     Atomic      Atomic             Coordinates (Angstroms)
 Number     Number       Type             X           Y           Z
 ---------------------------------------------------------------------
      1         78           0       -1.008098   -0.002554    0.023564
      2          6           0        1.040778    0.006667    0.073725
      3          7           0       -1.351872   -2.030588    0.021851
      4          7           0       -1.371945    2.022246    0.008714
      5          6           0       -0.428755    2.975399    0.046602
      6          6           0       -0.398749   -2.973631    0.063676
      7          6           0       -2.709059    2.370497   -0.042286
      8          6           0       -2.685437   -2.392870   -0.022148
      9          6           0       -3.612802   -1.258328   -0.063032
     10          6           0       -3.625038    1.226485   -0.074159
     11          6           0       -5.026887    1.184638   -0.123314
     12          6           0       -3.072336    3.724957   -0.058798
     13          6           0       -2.092344    4.709726   -0.020417
     14          6           0       -0.744979    4.330839    0.035451
     15          6           0       -5.014989   -1.230646   -0.112194
     16          6           0       -5.723602   -0.026574   -0.142658
     17          6           0       -3.034925   -3.751150   -0.020208
     18          6           0       -2.044755   -4.725434    0.024916
     19          1           0       -4.086756   -4.028898   -0.051962
     20          6           0       -0.700943   -4.332187    0.066180
     21          6           0       -2.958548   -0.012536   -0.045884
     22          9           0       -5.721231   -2.369921   -0.130392
     23          9           0       -5.744306    2.316719   -0.152261
     24          1           0        0.628075   -2.608296    0.098527
     25          6           0        0.398456   -5.362280    0.086817
     26          1           0       -2.317869   -5.782506    0.030833
     27          1           0        0.601877    2.621014    0.083278
     28          6           0        0.341059    5.372771    0.108014
     29          1           0       -4.126636    3.991341   -0.102923
     30          1           0       -2.375743    5.763900   -0.037457
     31          6           0        2.277388    0.010047    0.060642
     32          6           0        3.707803    0.013889    0.028194
     33          6           0        4.447523    1.218101   -0.023999
     34          6           0        4.455580   -1.186484    0.034584
     35          6           0        5.837091    1.229508   -0.071927
     36          6           0        5.845235   -1.190853   -0.012570
     37          6           0        6.585491    0.021156   -0.070201
     38          7           0        7.961809    0.024529   -0.122795
     39          1           0       -6.813007   -0.032125   -0.180343
     40          9           0        0.164122    6.329015   -0.821111
     41          9           0        1.561974    4.845788   -0.078463
     42          9           0        0.351159    5.992134    1.303574
     43          9           0        1.600000   -4.815854    0.333542
     44          9           0        0.487574   -6.010889   -1.089708
     45          9           0        0.175966   -6.297350    1.027787
     46          1           0        3.910527    2.170366   -0.029839
     47          1           0        6.346824    2.191499   -0.112978
     48          1           0        6.361574   -2.150201   -0.005956
     49          1           0        3.925014   -2.141478    0.075718
     50          6           0        8.685382    1.280513   -0.185956
     51          6           0        8.693844   -1.228146   -0.124189
     52          1           0        8.491668    1.917745    0.696229
     53          1           0        8.422404    1.868758   -1.084316
     54          1           0        9.762669    1.077961   -0.222194
     55          1           0        8.432484   -1.862719   -0.990876
     56          1           0        8.506737   -1.821220    0.789689
     57          1           0        9.769630   -1.020470   -0.173730
 ---------------------------------------------------------------------

 SCF Done:  E(RB1B95) =  -2157.17500998     A.U. after   16 cycles

 The electronic state is 1-A.
 Alpha  occ. eigenvalues --  -24.89355 -24.89350 -24.88889 -24.88878 -24.88676
 Alpha  occ. eigenvalues --  -24.88667 -24.88398 -24.88396 -14.53677 -14.53676
 Alpha  occ. eigenvalues --  -14.47047 -10.55088 -10.55087 -10.40628 -10.40626
 Alpha  occ. eigenvalues --  -10.37817 -10.37815 -10.36642 -10.36634 -10.34139
 Alpha  occ. eigenvalues --  -10.34135 -10.33877 -10.33875 -10.32955 -10.32661
 Alpha  occ. eigenvalues --  -10.32657 -10.31843 -10.31842 -10.31426 -10.31420
 Alpha  occ. eigenvalues --  -10.31204 -10.30752 -10.29538 -10.28897 -10.28895
 Alpha  occ. eigenvalues --  -10.28193 -10.28192 -10.25330 -10.24884  -3.97053
 Alpha  occ. eigenvalues --   -2.18974  -2.18612  -2.15382  -1.34557  -1.34557
 Alpha  occ. eigenvalues --   -1.26934  -1.26885  -1.25502  -1.25501  -1.24981
 Alpha  occ. eigenvalues --   -1.24979  -1.01842  -1.01443  -0.96653  -0.90937
 Alpha  occ. eigenvalues --   -0.87299  -0.87223  -0.86284  -0.84896  -0.83638
 Alpha  occ. eigenvalues --   -0.79258  -0.79234  -0.77845  -0.76186  -0.74430
 Alpha  occ. eigenvalues --   -0.73879  -0.73107  -0.71761  -0.70007  -0.69680
 Alpha  occ. eigenvalues --   -0.68887  -0.68403  -0.66922  -0.65372  -0.64798
 Alpha  occ. eigenvalues --   -0.62759  -0.62560  -0.62543  -0.62492  -0.62186
 Alpha  occ. eigenvalues --   -0.61681  -0.61358  -0.60019  -0.59297  -0.57750
 Alpha  occ. eigenvalues --   -0.57231  -0.55428  -0.54992  -0.54362  -0.53829
 Alpha  occ. eigenvalues --   -0.52235  -0.51574  -0.50971  -0.50772  -0.50587
 Alpha  occ. eigenvalues --   -0.50289  -0.50253  -0.49864  -0.49824  -0.49511
 Alpha  occ. eigenvalues --   -0.49491  -0.48993  -0.47827  -0.47782  -0.47750
 Alpha  occ. eigenvalues --   -0.47656  -0.47151  -0.46665  -0.46116  -0.46108
 Alpha  occ. eigenvalues --   -0.45966  -0.45947  -0.45627  -0.45261  -0.44219
 Alpha  occ. eigenvalues --   -0.44213  -0.43849  -0.43090  -0.42525  -0.42312
 Alpha  occ. eigenvalues --   -0.42220  -0.41417  -0.41034  -0.40628  -0.40260
 Alpha  occ. eigenvalues --   -0.40210  -0.39998  -0.39128  -0.38830  -0.38767
 Alpha  occ. eigenvalues --   -0.37378  -0.36166  -0.34875  -0.34807  -0.34483
 Alpha  occ. eigenvalues --   -0.33390  -0.32361  -0.31486  -0.31090  -0.29931
 Alpha  occ. eigenvalues --   -0.27720  -0.26961  -0.26820  -0.25971  -0.25819
 Alpha  occ. eigenvalues --   -0.24435  -0.24180  -0.19130
 Alpha virt. eigenvalues --   -0.08706  -0.08310  -0.04944  -0.04626  -0.01585
 Alpha virt. eigenvalues --    0.00113   0.00232   0.00446   0.01775   0.03996
 Alpha virt. eigenvalues --    0.05193   0.05579   0.07854   0.08114   0.08143

 Mulliken charges:
               1
     1  Pt   0.855816
     2  C   -0.511974
     3  N   -0.416110
     4  N   -0.415998
     5  C    0.198853
     6  C    0.198725
     7  C    0.182371
     8  C    0.182500
     9  C   -0.024708
    10  C   -0.024565
    11  C    0.294792
    12  C   -0.045866
    13  C    0.110894
    14  C   -0.222126
    15  C    0.294753
    16  C   -0.164412
    17  C   -0.045751
    18  C    0.110932
    19  H    0.050410
    20  C   -0.222185
    21  C   -0.408280
    22  F   -0.199759
    23  F   -0.199781
    24  H    0.074139
    25  C    0.622676
    26  H    0.062065
    27  H    0.073977
    28  C    0.622685
    29  H    0.050419
    30  H    0.061979
    31  C   -0.102980
    32  C   -0.063609
    33  C   -0.017137
    34  C   -0.016879
    35  C   -0.099724
    36  C   -0.099687
    37  C    0.205310
    38  N   -0.396823
    39  H    0.046383
    40  F   -0.187420
    41  F   -0.179464
    42  F   -0.186969
    43  F   -0.179359
    44  F   -0.187079
    45  F   -0.187555
    46  H    0.010069
    47  H    0.004634
    48  H    0.004624
    49  H    0.009701
    50  C    0.090840
    51  C    0.090830
    52  H    0.047342
    53  H    0.047113
    54  H    0.053443
    55  H    0.047155
    56  H    0.047318
    57  H    0.053452
 Sum of Mulliken charges =  -0.00000

 Dipole moment (field-independent basis, Debye):
    X=             -3.8713    Y=             -0.0287    Z=             -0.4316  Tot=              3.8954
 Quadrupole moment (field-independent basis, Debye-Ang):
   XX=           -162.7431   YY=           -216.6180   ZZ=           -249.7197
   XY=              0.1629   XZ=             -1.2725   YZ=             -1.0599

  Exact polarizability:     876.636       0.464     672.522       2.631      -2.955     242.439
 Approx polarizability:     888.405       0.417     705.836       4.627      -3.427     277.555

 Normal termination of Gaussian 16 at Fri May  5 03:36:07 2023.
