 Gaussian 16, Revision C.01,
 Gaussian 16:  EM64L-G16RevC.01  3-Jul-2019

 ----------------------------------------------------------------------
 #p B3LYP/gen gfinput pseudo=read scf=maxcycle=200 Polar=(DCSHG) CPHF=R
 dFreq scrf=(iefpcm,read,solvent=n,n-DiMethylFormamide)
 ----------------------------------------------------------------------

 ------------------------------
 Primeira Hiperpolarizabilidade
 ------------------------------
 Symbolic Z-matrix:
 Charge =  0 Multiplicity = 1

                         Standard orientation:
 ---------------------------------------------------------------------
 Center     Atomic      Atomic             Coordinates (Angstroms)
 Number     Number       Type             X           Y           Z
 ---------------------------------------------------------------------
      1         78           0       -1.008098   -0.002554    0.023564
      2          6           0        1.040778    0.006667    0.073725
      3          7           0       -1.351872   -2.030588    0.021851
      4          7           0       -1.371945    2.022246    0.008714
      5          6           0       -0.428755    2.975399    0.046602
      6          6           0       -0.398749   -2.973631    0.063676
      7          6           0       -2.709059    2.370497   -0.042286
      8          6           0       -2.685437   -2.392870   -0.022148
      9          6           0       -3.612802   -1.258328   -0.063032
     10          6           0       -3.625038    1.226485   -0.074159
     11          6           0       -5.026887    1.184638   -0.123314
     12          6           0       -3.072336    3.724957   -0.058798
     13          6           0       -2.092344    4.709726   -0.020417
     14          6           0       -0.744979    4.330839    0.035451
     15          6           0       -5.014989   -1.230646   -0.112194
     16          6           0       -5.723602   -0.026574   -0.142658
     17          6           0       -3.034925   -3.751150   -0.020208
     18          6           0       -2.044755   -4.725434    0.024916
     19          1           0       -4.086756   -4.028898   -0.051962
     20          6           0       -0.700943   -4.332187    0.066180
     21          6           0       -2.958548   -0.012536   -0.045884
     22          9           0       -5.721231   -2.369921   -0.130392
     23          9           0       -5.744306    2.316719   -0.152261
     24          1           0        0.628075   -2.608296    0.098527
     25          6           0        0.398456   -5.362280    0.086817
     26          1           0       -2.317869   -5.782506    0.030833
     27          1           0        0.601877    2.621014    0.083278
     28          6           0        0.341059    5.372771    0.108014
     29          1           0       -4.126636    3.991341   -0.102923
     30          1           0       -2.375743    5.763900   -0.037457
     31          6           0        2.277388    0.010047    0.060642
     32          6           0        3.707803    0.013889    0.028194
     33          6           0        4.447523    1.218101   -0.023999
     34          6           0        4.455580   -1.186484    0.034584
     35          6           0        5.837091    1.229508   -0.071927
     36          6           0        5.845235   -1.190853   -0.012570
     37          6           0        6.585491    0.021156   -0.070201
     38          7           0        7.961809    0.024529   -0.122795
     39          1           0       -6.813007   -0.032125   -0.180343
     40          9           0        0.164122    6.329015   -0.821111
     41          9           0        1.561974    4.845788   -0.078463
     42          9           0        0.351159    5.992134    1.303574
     43          9           0        1.600000   -4.815854    0.333542
     44          9           0        0.487574   -6.010889   -1.089708
     45          9           0        0.175966   -6.297350    1.027787
     46          1           0        3.910527    2.170366   -0.029839
     47          1           0        6.346824    2.191499   -0.112978
     48          1           0        6.361574   -2.150201   -0.005956
     49          1           0        3.925014   -2.141478    0.075718
     50          6           0        8.685382    1.280513   -0.185956
     51          6           0        8.693844   -1.228146   -0.124189
     52          1           0        8.491668    1.917745    0.696229
     53          1           0        8.422404    1.868758   -1.084316
     54          1           0        9.762669    1.077961   -0.222194
     55          1           0        8.432484   -1.862719   -0.990876
     56          1           0        8.506737   -1.821220    0.789689
     57          1           0        9.769630   -1.020470   -0.173730
 ---------------------------------------------------------------------

 SCF Done:  E(RB3LYP) =  -2157.93196558     A.U. after   15 cycles

 The electronic state is 1-A.
 Alpha  occ. eigenvalues --  -24.73406 -24.73401 -24.72946 -24.72935 -24.72736
 Alpha  occ. eigenvalues --  -24.72727 -24.72500 -24.72497 -14.41034 -14.41033
 Alpha  occ. eigenvalues --  -14.34838 -10.44979 -10.44978 -10.30500 -10.30498
 Alpha  occ. eigenvalues --  -10.27610 -10.27607 -10.26572 -10.26563 -10.24111
 Alpha  occ. eigenvalues --  -10.24106 -10.23810 -10.23808 -10.22980 -10.22718
 Alpha  occ. eigenvalues --  -10.22714 -10.21807 -10.21800 -10.21690 -10.21689
 Alpha  occ. eigenvalues --  -10.21267 -10.20271 -10.19636 -10.18996 -10.18995
 Alpha  occ. eigenvalues --  -10.18322 -10.18321 -10.15450 -10.14754  -3.93483
 Alpha  occ. eigenvalues --   -2.16209  -2.15853  -2.12636  -1.31045  -1.31044
 Alpha  occ. eigenvalues --   -1.23449  -1.23400  -1.22004  -1.22003  -1.21484
 Alpha  occ. eigenvalues --   -1.21482  -0.99192  -0.98803  -0.94272  -0.88410
 Alpha  occ. eigenvalues --   -0.84918  -0.84849  -0.83986  -0.82578  -0.81342
 Alpha  occ. eigenvalues --   -0.77005  -0.76969  -0.75779  -0.74175  -0.72172
 Alpha  occ. eigenvalues --   -0.71638  -0.71260  -0.69836  -0.67996  -0.67512
 Alpha  occ. eigenvalues --   -0.66914  -0.66326  -0.65189  -0.63382  -0.62843
 Alpha  occ. eigenvalues --   -0.60666  -0.60488  -0.60379  -0.60369  -0.60155
 Alpha  occ. eigenvalues --   -0.59702  -0.59674  -0.58131  -0.57676  -0.55925
 Alpha  occ. eigenvalues --   -0.55444  -0.53647  -0.53444  -0.52770  -0.52178
 Alpha  occ. eigenvalues --   -0.50200  -0.50103  -0.49040  -0.48821  -0.48698
 Alpha  occ. eigenvalues --   -0.48489  -0.48194  -0.48103  -0.48073  -0.47875
 Alpha  occ. eigenvalues --   -0.47718  -0.47383  -0.46358  -0.46276  -0.45881
 Alpha  occ. eigenvalues --   -0.45780  -0.45404  -0.45133  -0.44409  -0.44074
 Alpha  occ. eigenvalues --   -0.44066  -0.43975  -0.43932  -0.43838  -0.42673
 Alpha  occ. eigenvalues --   -0.42094  -0.42089  -0.41945  -0.41068  -0.40918
 Alpha  occ. eigenvalues --   -0.40669  -0.40378  -0.39915  -0.39383  -0.39049
 Alpha  occ. eigenvalues --   -0.38597  -0.38510  -0.37849  -0.37771  -0.37573
 Alpha  occ. eigenvalues --   -0.36106  -0.34657  -0.33864  -0.33466  -0.33081
 Alpha  occ. eigenvalues --   -0.31937  -0.31023  -0.29926  -0.29701  -0.28784
 Alpha  occ. eigenvalues --   -0.26380  -0.25754  -0.25661  -0.24597  -0.24550
 Alpha  occ. eigenvalues --   -0.23159  -0.23002  -0.18227
 Alpha virt. eigenvalues --   -0.09405  -0.08974  -0.05837  -0.05498  -0.02473
 Alpha virt. eigenvalues --   -0.01000  -0.00760  -0.00427   0.00813   0.02652
 Alpha virt. eigenvalues --    0.03450   0.03920   0.06072   0.06724   0.06869

 Mulliken charges:
               1
     1  Pt   0.735820
     2  C   -0.488836
     3  N   -0.333603
     4  N   -0.333589
     5  C    0.149461
     6  C    0.149551
     7  C    0.171123
     8  C    0.171170
     9  C    0.032148
    10  C    0.032282
    11  C    0.250448
    12  C   -0.044921
    13  C    0.101156
    14  C   -0.132308
    15  C    0.250405
    16  C   -0.150454
    17  C   -0.044856
    18  C    0.100996
    19  H    0.019874
    20  C   -0.132186
    21  C   -0.367732
    22  F   -0.184679
    23  F   -0.184694
    24  H    0.048551
    25  C    0.560971
    26  H    0.034104
    27  H    0.048640
    28  C    0.560983
    29  H    0.019858
    30  H    0.033990
    31  C   -0.068649
    32  C   -0.010569
    33  C   -0.021866
    34  C   -0.021934
    35  C   -0.085888
    36  C   -0.085845
    37  C    0.206922
    38  N   -0.312237
    39  H    0.013942
    40  F   -0.173927
    41  F   -0.164756
    42  F   -0.173380
    43  F   -0.164626
    44  F   -0.173513
    45  F   -0.174057
    46  H   -0.021078
    47  H   -0.024671
    48  H   -0.024675
    49  H   -0.021100
    50  C    0.131584
    51  C    0.131607
    52  H    0.025629
    53  H    0.025356
    54  H    0.031532
    55  H    0.025416
    56  H    0.025569
    57  H    0.031538
 Sum of Mulliken charges =  -0.00000

 Dipole moment (field-independent basis, Debye):
    X=             -3.6843    Y=             -0.0281    Z=             -0.4254  Tot=              3.7089
 Quadrupole moment (field-independent basis, Debye-Ang):
   XX=           -166.3099   YY=           -219.8288   ZZ=           -249.6137
   XY=              0.1618   XZ=             -1.2913   YZ=             -1.0176

  Exact polarizability:     920.365       0.467     690.433       2.619      -3.037     242.250
 Approx polarizability:     999.042       0.523     775.586       5.060      -3.778     292.937

 Normal termination of Gaussian 16 at Fri May  5 05:18:41 2023.
