 Gaussian 16, Revision C.01,
 Gaussian 16:  EM64L-G16RevC.01  3-Jul-2019

 ----------------------------------------------------------------------
 #p B3P86/gen gfinput pseudo=read scf=maxcycle=200 Polar=(DCSHG) CPHF=R
 dFreq scrf=(iefpcm,read,solvent=n,n-DiMethylFormamide)
 ----------------------------------------------------------------------

 ------------------------------
 Primeira Hiperpolarizabilidade
 ------------------------------
 Symbolic Z-matrix:
 Charge =  0 Multiplicity = 1

                         Standard orientation:
 ---------------------------------------------------------------------
 Center     Atomic      Atomic             Coordinates (Angstroms)
 Number     Number       Type             X           Y           Z
 ---------------------------------------------------------------------
      1         78           0       -1.008098   -0.002554    0.023564
      2          6           0        1.040778    0.006667    0.073725
      3          7           0       -1.351872   -2.030588    0.021851
      4          7           0       -1.371945    2.022246    0.008714
      5          6           0       -0.428755    2.975399    0.046602
      6          6           0       -0.398749   -2.973631    0.063676
      7          6           0       -2.709059    2.370497   -0.042286
      8          6           0       -2.685437   -2.392870   -0.022148
      9          6           0       -3.612802   -1.258328   -0.063032
     10          6           0       -3.625038    1.226485   -0.074159
     11          6           0       -5.026887    1.184638   -0.123314
     12          6           0       -3.072336    3.724957   -0.058798
     13          6           0       -2.092344    4.709726   -0.020417
     14          6           0       -0.744979    4.330839    0.035451
     15          6           0       -5.014989   -1.230646   -0.112194
     16          6           0       -5.723602   -0.026574   -0.142658
     17          6           0       -3.034925   -3.751150   -0.020208
     18          6           0       -2.044755   -4.725434    0.024916
     19          1           0       -4.086756   -4.028898   -0.051962
     20          6           0       -0.700943   -4.332187    0.066180
     21          6           0       -2.958548   -0.012536   -0.045884
     22          9           0       -5.721231   -2.369921   -0.130392
     23          9           0       -5.744306    2.316719   -0.152261
     24          1           0        0.628075   -2.608296    0.098527
     25          6           0        0.398456   -5.362280    0.086817
     26          1           0       -2.317869   -5.782506    0.030833
     27          1           0        0.601877    2.621014    0.083278
     28          6           0        0.341059    5.372771    0.108014
     29          1           0       -4.126636    3.991341   -0.102923
     30          1           0       -2.375743    5.763900   -0.037457
     31          6           0        2.277388    0.010047    0.060642
     32          6           0        3.707803    0.013889    0.028194
     33          6           0        4.447523    1.218101   -0.023999
     34          6           0        4.455580   -1.186484    0.034584
     35          6           0        5.837091    1.229508   -0.071927
     36          6           0        5.845235   -1.190853   -0.012570
     37          6           0        6.585491    0.021156   -0.070201
     38          7           0        7.961809    0.024529   -0.122795
     39          1           0       -6.813007   -0.032125   -0.180343
     40          9           0        0.164122    6.329015   -0.821111
     41          9           0        1.561974    4.845788   -0.078463
     42          9           0        0.351159    5.992134    1.303574
     43          9           0        1.600000   -4.815854    0.333542
     44          9           0        0.487574   -6.010889   -1.089708
     45          9           0        0.175966   -6.297350    1.027787
     46          1           0        3.910527    2.170366   -0.029839
     47          1           0        6.346824    2.191499   -0.112978
     48          1           0        6.361574   -2.150201   -0.005956
     49          1           0        3.925014   -2.141478    0.075718
     50          6           0        8.685382    1.280513   -0.185956
     51          6           0        8.693844   -1.228146   -0.124189
     52          1           0        8.491668    1.917745    0.696229
     53          1           0        8.422404    1.868758   -1.084316
     54          1           0        9.762669    1.077961   -0.222194
     55          1           0        8.432484   -1.862719   -0.990876
     56          1           0        8.506737   -1.821220    0.789689
     57          1           0        9.769630   -1.020470   -0.173730
 ---------------------------------------------------------------------

 SCF Done:  E(RB3P86) =  -2163.32586811     A.U. after   15 cycles

 The electronic state is 1-A.
 Alpha  occ. eigenvalues --  -24.75015 -24.75010 -24.74562 -24.74551 -24.74355
 Alpha  occ. eigenvalues --  -24.74346 -24.74198 -24.74196 -14.43001 -14.43000
 Alpha  occ. eigenvalues --  -14.36588 -10.45985 -10.45984 -10.31789 -10.31787
 Alpha  occ. eigenvalues --  -10.28967 -10.28964 -10.27804 -10.27796 -10.25326
 Alpha  occ. eigenvalues --  -10.25322 -10.25110 -10.25108 -10.24218 -10.23935
 Alpha  occ. eigenvalues --  -10.23931 -10.23092 -10.23090 -10.22659 -10.22652
 Alpha  occ. eigenvalues --  -10.22473 -10.21918 -10.20910 -10.20194 -10.20193
 Alpha  occ. eigenvalues --  -10.19507 -10.19506 -10.16859 -10.16361  -3.95917
 Alpha  occ. eigenvalues --   -2.18625  -2.18292  -2.15027  -1.33962  -1.33961
 Alpha  occ. eigenvalues --   -1.26407  -1.26357  -1.24861  -1.24859  -1.24343
 Alpha  occ. eigenvalues --   -1.24341  -1.02143  -1.01748  -0.97069  -0.91346
 Alpha  occ. eigenvalues --   -0.87742  -0.87669  -0.86785  -0.85411  -0.84158
 Alpha  occ. eigenvalues --   -0.79815  -0.79772  -0.78512  -0.76837  -0.74963
 Alpha  occ. eigenvalues --   -0.74407  -0.73830  -0.72542  -0.70723  -0.70254
 Alpha  occ. eigenvalues --   -0.69605  -0.69042  -0.67790  -0.66095  -0.65554
 Alpha  occ. eigenvalues --   -0.63316  -0.63131  -0.63034  -0.63024  -0.62819
 Alpha  occ. eigenvalues --   -0.62324  -0.62245  -0.60830  -0.60241  -0.58566
 Alpha  occ. eigenvalues --   -0.58093  -0.56288  -0.55992  -0.55366  -0.54772
 Alpha  occ. eigenvalues --   -0.52735  -0.52714  -0.51609  -0.51428  -0.51207
 Alpha  occ. eigenvalues --   -0.50992  -0.50718  -0.50618  -0.50578  -0.50367
 Alpha  occ. eigenvalues --   -0.50204  -0.49844  -0.48743  -0.48742  -0.48557
 Alpha  occ. eigenvalues --   -0.48451  -0.47987  -0.47627  -0.46772  -0.46597
 Alpha  occ. eigenvalues --   -0.46586  -0.46501  -0.46413  -0.46338  -0.45107
 Alpha  occ. eigenvalues --   -0.44570  -0.44565  -0.44266  -0.43551  -0.43393
 Alpha  occ. eigenvalues --   -0.43148  -0.42567  -0.42212  -0.41798  -0.41431
 Alpha  occ. eigenvalues --   -0.41200  -0.41030  -0.40179  -0.40108  -0.40034
 Alpha  occ. eigenvalues --   -0.38598  -0.37299  -0.36133  -0.36104  -0.35724
 Alpha  occ. eigenvalues --   -0.34539  -0.33616  -0.32528  -0.32320  -0.31375
 Alpha  occ. eigenvalues --   -0.28984  -0.28342  -0.28211  -0.27189  -0.27160
 Alpha  occ. eigenvalues --   -0.25745  -0.25567  -0.20715
 Alpha virt. eigenvalues --   -0.11979  -0.11539  -0.08355  -0.08020  -0.04930
 Alpha virt. eigenvalues --   -0.03626  -0.03216  -0.02934  -0.01715   0.01393
 Alpha virt. eigenvalues --    0.02537   0.02888   0.04512   0.04571   0.05005

 Mulliken charges:
               1
     1  Pt   0.823835
     2  C   -0.518248
     3  N   -0.383713
     4  N   -0.383692
     5  C    0.166308
     6  C    0.166374
     7  C    0.177013
     8  C    0.177079
     9  C   -0.007382
    10  C   -0.007236
    11  C    0.277978
    12  C   -0.064915
    13  C    0.088260
    14  C   -0.200206
    15  C    0.277943
    16  C   -0.180159
    17  C   -0.064807
    18  C    0.088159
    19  H    0.059312
    20  C   -0.200112
    21  C   -0.396793
    22  F   -0.191486
    23  F   -0.191502
    24  H    0.079185
    25  C    0.601638
    26  H    0.072319
    27  H    0.079331
    28  C    0.601662
    29  H    0.059295
    30  H    0.072207
    31  C   -0.087742
    32  C   -0.045765
    33  C   -0.039498
    34  C   -0.039602
    35  C   -0.113266
    36  C   -0.113220
    37  C    0.204410
    38  N   -0.361256
    39  H    0.057308
    40  F   -0.180550
    41  F   -0.172411
    42  F   -0.180077
    43  F   -0.172303
    44  F   -0.180191
    45  F   -0.180675
    46  H    0.020255
    47  H    0.013628
    48  H    0.013620
    49  H    0.020257
    50  C    0.054157
    51  C    0.054179
    52  H    0.056522
    53  H    0.056277
    54  H    0.062745
    55  H    0.056320
    56  H    0.056480
    57  H    0.062750
 Sum of Mulliken charges =  -0.00000

 Dipole moment (field-independent basis, Debye):
    X=             -3.5687    Y=             -0.0279    Z=             -0.4357  Tot=              3.5953
 Quadrupole moment (field-independent basis, Debye-Ang):
   XX=           -160.5471   YY=           -216.4142   ZZ=           -249.8130
   XY=              0.1685   XZ=             -1.2935   YZ=             -1.0539

  Exact polarizability:     923.459       0.481     689.554       2.559      -2.994     243.781
 Approx polarizability:    1003.307       0.538     774.684       5.055      -3.748     290.285

 Normal termination of Gaussian 16 at Fri May  5 07:08:49 2023.
