 Gaussian 16, Revision C.01,
 Gaussian 16:  EM64L-G16RevC.01  3-Jul-2019

 ----------------------------------------------------------------------
 #p B3PW91/gen gfinput pseudo=read scf=maxcycle=200 Polar=(DCSHG) CPHF=
 RdFreq scrf=(iefpcm,read,solvent=n,n-DiMethylFormamide)
 ----------------------------------------------------------------------

 ------------------------------
 Primeira Hiperpolarizabilidade
 ------------------------------
 Symbolic Z-matrix:
 Charge =  0 Multiplicity = 1

                         Standard orientation:
 ---------------------------------------------------------------------
 Center     Atomic      Atomic             Coordinates (Angstroms)
 Number     Number       Type             X           Y           Z
 ---------------------------------------------------------------------
      1         78           0       -1.008098   -0.002554    0.023564
      2          6           0        1.040778    0.006667    0.073725
      3          7           0       -1.351872   -2.030588    0.021851
      4          7           0       -1.371945    2.022246    0.008714
      5          6           0       -0.428755    2.975399    0.046602
      6          6           0       -0.398749   -2.973631    0.063676
      7          6           0       -2.709059    2.370497   -0.042286
      8          6           0       -2.685437   -2.392870   -0.022148
      9          6           0       -3.612802   -1.258328   -0.063032
     10          6           0       -3.625038    1.226485   -0.074159
     11          6           0       -5.026887    1.184638   -0.123314
     12          6           0       -3.072336    3.724957   -0.058798
     13          6           0       -2.092344    4.709726   -0.020417
     14          6           0       -0.744979    4.330839    0.035451
     15          6           0       -5.014989   -1.230646   -0.112194
     16          6           0       -5.723602   -0.026574   -0.142658
     17          6           0       -3.034925   -3.751150   -0.020208
     18          6           0       -2.044755   -4.725434    0.024916
     19          1           0       -4.086756   -4.028898   -0.051962
     20          6           0       -0.700943   -4.332187    0.066180
     21          6           0       -2.958548   -0.012536   -0.045884
     22          9           0       -5.721231   -2.369921   -0.130392
     23          9           0       -5.744306    2.316719   -0.152261
     24          1           0        0.628075   -2.608296    0.098527
     25          6           0        0.398456   -5.362280    0.086817
     26          1           0       -2.317869   -5.782506    0.030833
     27          1           0        0.601877    2.621014    0.083278
     28          6           0        0.341059    5.372771    0.108014
     29          1           0       -4.126636    3.991341   -0.102923
     30          1           0       -2.375743    5.763900   -0.037457
     31          6           0        2.277388    0.010047    0.060642
     32          6           0        3.707803    0.013889    0.028194
     33          6           0        4.447523    1.218101   -0.023999
     34          6           0        4.455580   -1.186484    0.034584
     35          6           0        5.837091    1.229508   -0.071927
     36          6           0        5.845235   -1.190853   -0.012570
     37          6           0        6.585491    0.021156   -0.070201
     38          7           0        7.961809    0.024529   -0.122795
     39          1           0       -6.813007   -0.032125   -0.180343
     40          9           0        0.164122    6.329015   -0.821111
     41          9           0        1.561974    4.845788   -0.078463
     42          9           0        0.351159    5.992134    1.303574
     43          9           0        1.600000   -4.815854    0.333542
     44          9           0        0.487574   -6.010889   -1.089708
     45          9           0        0.175966   -6.297350    1.027787
     46          1           0        3.910527    2.170366   -0.029839
     47          1           0        6.346824    2.191499   -0.112978
     48          1           0        6.361574   -2.150201   -0.005956
     49          1           0        3.925014   -2.141478    0.075718
     50          6           0        8.685382    1.280513   -0.185956
     51          6           0        8.693844   -1.228146   -0.124189
     52          1           0        8.491668    1.917745    0.696229
     53          1           0        8.422404    1.868758   -1.084316
     54          1           0        9.762669    1.077961   -0.222194
     55          1           0        8.432484   -1.862719   -0.990876
     56          1           0        8.506737   -1.821220    0.789689
     57          1           0        9.769630   -1.020470   -0.173730
 ---------------------------------------------------------------------

 SCF Done:  E(RB3PW91) =  -2157.22562668     A.U. after   15 cycles

 The electronic state is 1-A.
 Alpha  occ. eigenvalues --  -24.72435 -24.72430 -24.71986 -24.71976 -24.71784
 Alpha  occ. eigenvalues --  -24.71775 -24.71642 -24.71639 -14.40804 -14.40802
 Alpha  occ. eigenvalues --  -14.34429 -10.43731 -10.43731 -10.29567 -10.29565
 Alpha  occ. eigenvalues --  -10.26760 -10.26757 -10.25583 -10.25575 -10.23118
 Alpha  occ. eigenvalues --  -10.23114 -10.22902 -10.22900 -10.22041 -10.21725
 Alpha  occ. eigenvalues --  -10.21721 -10.20897 -10.20896 -10.20501 -10.20494
 Alpha  occ. eigenvalues --  -10.20263 -10.19764 -10.18739 -10.18018 -10.18016
 Alpha  occ. eigenvalues --  -10.17329 -10.17328 -10.14651 -10.14190  -3.93758
 Alpha  occ. eigenvalues --   -2.16478  -2.16143  -2.12878  -1.31722  -1.31721
 Alpha  occ. eigenvalues --   -1.24175  -1.24124  -1.22609  -1.22608  -1.22095
 Alpha  occ. eigenvalues --   -1.22093  -1.00008  -0.99613  -0.94970  -0.89224
 Alpha  occ. eigenvalues --   -0.85615  -0.85541  -0.84692  -0.83287  -0.82035
 Alpha  occ. eigenvalues --   -0.77684  -0.77636  -0.76413  -0.74743  -0.72808
 Alpha  occ. eigenvalues --   -0.72249  -0.71752  -0.70426  -0.68594  -0.68092
 Alpha  occ. eigenvalues --   -0.67471  -0.66884  -0.65682  -0.63948  -0.63406
 Alpha  occ. eigenvalues --   -0.61137  -0.60965  -0.60847  -0.60839  -0.60654
 Alpha  occ. eigenvalues --   -0.60173  -0.60144  -0.58691  -0.58134  -0.56421
 Alpha  occ. eigenvalues --   -0.55948  -0.54128  -0.53896  -0.53224  -0.52622
 Alpha  occ. eigenvalues --   -0.50616  -0.50577  -0.49466  -0.49257  -0.49047
 Alpha  occ. eigenvalues --   -0.48895  -0.48550  -0.48419  -0.48397  -0.48210
 Alpha  occ. eigenvalues --   -0.48025  -0.47690  -0.46658  -0.46610  -0.46435
 Alpha  occ. eigenvalues --   -0.46328  -0.45828  -0.45493  -0.44670  -0.44415
 Alpha  occ. eigenvalues --   -0.44410  -0.44359  -0.44225  -0.44159  -0.43007
 Alpha  occ. eigenvalues --   -0.42385  -0.42379  -0.42163  -0.41389  -0.41241
 Alpha  occ. eigenvalues --   -0.40980  -0.40500  -0.40109  -0.39650  -0.39294
 Alpha  occ. eigenvalues --   -0.39095  -0.38869  -0.38105  -0.37989  -0.37963
 Alpha  occ. eigenvalues --   -0.36463  -0.35203  -0.34037  -0.34014  -0.33630
 Alpha  occ. eigenvalues --   -0.32451  -0.31533  -0.30397  -0.30226  -0.29246
 Alpha  occ. eigenvalues --   -0.26876  -0.26266  -0.26152  -0.25052  -0.25047
 Alpha  occ. eigenvalues --   -0.23632  -0.23474  -0.18644
 Alpha virt. eigenvalues --   -0.09876  -0.09439  -0.06252  -0.05920  -0.02844
 Alpha virt. eigenvalues --   -0.01465  -0.01131  -0.00851   0.00386   0.03182
 Alpha virt. eigenvalues --    0.04419   0.04786   0.06523   0.06601   0.07024

 Mulliken charges:
               1
     1  Pt   0.843038
     2  C   -0.519675
     3  N   -0.398961
     4  N   -0.398942
     5  C    0.176163
     6  C    0.176176
     7  C    0.182285
     8  C    0.182355
     9  C   -0.017415
    10  C   -0.017265
    11  C    0.286801
    12  C   -0.061874
    13  C    0.096721
    14  C   -0.216330
    15  C    0.286769
    16  C   -0.179884
    17  C   -0.061770
    18  C    0.096642
    19  H    0.057721
    20  C   -0.216239
    21  C   -0.401050
    22  F   -0.192906
    23  F   -0.192922
    24  H    0.082653
    25  C    0.614030
    26  H    0.068622
    27  H    0.082730
    28  C    0.614047
    29  H    0.057706
    30  H    0.068525
    31  C   -0.092381
    32  C   -0.056637
    33  C   -0.032673
    34  C   -0.032798
    35  C   -0.113131
    36  C   -0.113083
    37  C    0.208094
    38  N   -0.374745
    39  H    0.054192
    40  F   -0.182291
    41  F   -0.174246
    42  F   -0.181826
    43  F   -0.174141
    44  F   -0.181940
    45  F   -0.182419
    46  H    0.018730
    47  H    0.014270
    48  H    0.014263
    49  H    0.018745
    50  C    0.063861
    51  C    0.063882
    52  H    0.054562
    53  H    0.054319
    54  H    0.060376
    55  H    0.054369
    56  H    0.054514
    57  H    0.060381
 Sum of Mulliken charges =  -0.00000

 Dipole moment (field-independent basis, Debye):
    X=             -3.5478    Y=             -0.0277    Z=             -0.4336  Tot=              3.5743
 Quadrupole moment (field-independent basis, Debye-Ang):
   XX=           -160.8141   YY=           -216.3552   ZZ=           -249.6037
   XY=              0.1667   XZ=             -1.2932   YZ=             -1.0424

  Exact polarizability:     921.376       0.476     688.890       2.543      -2.984     244.572
 Approx polarizability:    1001.181       0.534     773.831       5.072      -3.745     289.408

 Normal termination of Gaussian 16 at Fri May  5 08:50:20 2023.
