 Gaussian 16, Revision C.01,
 Gaussian 16:  EM64L-G16RevC.01  3-Jul-2019

 ----------------------------------------------------------------------
 #p B972/gen gfinput pseudo=read scf=maxcycle=200 Polar=(DCSHG) CPHF=Rd
 Freq scrf=(iefpcm,read,solvent=n,n-DiMethylFormamide)
 ----------------------------------------------------------------------

 ------------------------------
 Primeira Hiperpolarizabilidade
 ------------------------------
 Symbolic Z-matrix:
 Charge =  0 Multiplicity = 1

                         Standard orientation:
 ---------------------------------------------------------------------
 Center     Atomic      Atomic             Coordinates (Angstroms)
 Number     Number       Type             X           Y           Z
 ---------------------------------------------------------------------
      1         78           0       -1.008098   -0.002554    0.023564
      2          6           0        1.040778    0.006667    0.073725
      3          7           0       -1.351872   -2.030588    0.021851
      4          7           0       -1.371945    2.022246    0.008714
      5          6           0       -0.428755    2.975399    0.046602
      6          6           0       -0.398749   -2.973631    0.063676
      7          6           0       -2.709059    2.370497   -0.042286
      8          6           0       -2.685437   -2.392870   -0.022148
      9          6           0       -3.612802   -1.258328   -0.063032
     10          6           0       -3.625038    1.226485   -0.074159
     11          6           0       -5.026887    1.184638   -0.123314
     12          6           0       -3.072336    3.724957   -0.058798
     13          6           0       -2.092344    4.709726   -0.020417
     14          6           0       -0.744979    4.330839    0.035451
     15          6           0       -5.014989   -1.230646   -0.112194
     16          6           0       -5.723602   -0.026574   -0.142658
     17          6           0       -3.034925   -3.751150   -0.020208
     18          6           0       -2.044755   -4.725434    0.024916
     19          1           0       -4.086756   -4.028898   -0.051962
     20          6           0       -0.700943   -4.332187    0.066180
     21          6           0       -2.958548   -0.012536   -0.045884
     22          9           0       -5.721231   -2.369921   -0.130392
     23          9           0       -5.744306    2.316719   -0.152261
     24          1           0        0.628075   -2.608296    0.098527
     25          6           0        0.398456   -5.362280    0.086817
     26          1           0       -2.317869   -5.782506    0.030833
     27          1           0        0.601877    2.621014    0.083278
     28          6           0        0.341059    5.372771    0.108014
     29          1           0       -4.126636    3.991341   -0.102923
     30          1           0       -2.375743    5.763900   -0.037457
     31          6           0        2.277388    0.010047    0.060642
     32          6           0        3.707803    0.013889    0.028194
     33          6           0        4.447523    1.218101   -0.023999
     34          6           0        4.455580   -1.186484    0.034584
     35          6           0        5.837091    1.229508   -0.071927
     36          6           0        5.845235   -1.190853   -0.012570
     37          6           0        6.585491    0.021156   -0.070201
     38          7           0        7.961809    0.024529   -0.122795
     39          1           0       -6.813007   -0.032125   -0.180343
     40          9           0        0.164122    6.329015   -0.821111
     41          9           0        1.561974    4.845788   -0.078463
     42          9           0        0.351159    5.992134    1.303574
     43          9           0        1.600000   -4.815854    0.333542
     44          9           0        0.487574   -6.010889   -1.089708
     45          9           0        0.175966   -6.297350    1.027787
     46          1           0        3.910527    2.170366   -0.029839
     47          1           0        6.346824    2.191499   -0.112978
     48          1           0        6.361574   -2.150201   -0.005956
     49          1           0        3.925014   -2.141478    0.075718
     50          6           0        8.685382    1.280513   -0.185956
     51          6           0        8.693844   -1.228146   -0.124189
     52          1           0        8.491668    1.917745    0.696229
     53          1           0        8.422404    1.868758   -1.084316
     54          1           0        9.762669    1.077961   -0.222194
     55          1           0        8.432484   -1.862719   -0.990876
     56          1           0        8.506737   -1.821220    0.789689
     57          1           0        9.769630   -1.020470   -0.173730
 ---------------------------------------------------------------------

 SCF Done:  E(RB972) =  -2157.37262952     A.U. after   15 cycles

 The electronic state is 1-A.
 Alpha  occ. eigenvalues --  -24.74357 -24.74353 -24.73912 -24.73902 -24.73712
 Alpha  occ. eigenvalues --  -24.73703 -24.73538 -24.73536 -14.43084 -14.43083
 Alpha  occ. eigenvalues --  -14.36693 -10.46166 -10.46166 -10.31857 -10.31856
 Alpha  occ. eigenvalues --  -10.28997 -10.28995 -10.27815 -10.27806 -10.25366
 Alpha  occ. eigenvalues --  -10.25361 -10.25044 -10.25043 -10.24229 -10.23893
 Alpha  occ. eigenvalues --  -10.23888 -10.23060 -10.23059 -10.22761 -10.22755
 Alpha  occ. eigenvalues --  -10.22441 -10.22018 -10.20880 -10.20217 -10.20216
 Alpha  occ. eigenvalues --  -10.19493 -10.19492 -10.16710 -10.16303  -3.94275
 Alpha  occ. eigenvalues --   -2.16795  -2.16492  -2.13211  -1.32467  -1.32467
 Alpha  occ. eigenvalues --   -1.24927  -1.24877  -1.23403  -1.23402  -1.22891
 Alpha  occ. eigenvalues --   -1.22889  -1.00466  -1.00074  -0.95423  -0.89671
 Alpha  occ. eigenvalues --   -0.86036  -0.85962  -0.85099  -0.83698  -0.82432
 Alpha  occ. eigenvalues --   -0.78060  -0.78027  -0.76766  -0.75079  -0.73141
 Alpha  occ. eigenvalues --   -0.72590  -0.72032  -0.70716  -0.68806  -0.68341
 Alpha  occ. eigenvalues --   -0.67701  -0.67095  -0.65915  -0.64143  -0.63583
 Alpha  occ. eigenvalues --   -0.61252  -0.61066  -0.60973  -0.60965  -0.60742
 Alpha  occ. eigenvalues --   -0.60340  -0.60245  -0.58781  -0.58285  -0.56469
 Alpha  occ. eigenvalues --   -0.56068  -0.54211  -0.53888  -0.53239  -0.52657
 Alpha  occ. eigenvalues --   -0.50644  -0.50609  -0.49500  -0.49330  -0.49136
 Alpha  occ. eigenvalues --   -0.48863  -0.48630  -0.48563  -0.48479  -0.48278
 Alpha  occ. eigenvalues --   -0.48143  -0.47776  -0.46665  -0.46582  -0.46320
 Alpha  occ. eigenvalues --   -0.46222  -0.45902  -0.45503  -0.44706  -0.44524
 Alpha  occ. eigenvalues --   -0.44513  -0.44396  -0.44381  -0.44274  -0.42943
 Alpha  occ. eigenvalues --   -0.42572  -0.42567  -0.42144  -0.41400  -0.41254
 Alpha  occ. eigenvalues --   -0.41032  -0.40438  -0.40076  -0.39621  -0.39279
 Alpha  occ. eigenvalues --   -0.38977  -0.38899  -0.37957  -0.37914  -0.37900
 Alpha  occ. eigenvalues --   -0.36360  -0.35006  -0.33981  -0.33807  -0.33418
 Alpha  occ. eigenvalues --   -0.32276  -0.31329  -0.30217  -0.30043  -0.29036
 Alpha  occ. eigenvalues --   -0.26682  -0.26040  -0.25903  -0.24874  -0.24867
 Alpha  occ. eigenvalues --   -0.23422  -0.23297  -0.18405
 Alpha virt. eigenvalues --   -0.09302  -0.08905  -0.05660  -0.05312  -0.02261
 Alpha virt. eigenvalues --   -0.01029  -0.00529  -0.00278   0.01008   0.03330
 Alpha virt. eigenvalues --    0.04356   0.04787   0.07061   0.07244   0.07293

 Mulliken charges:
               1
     1  Pt   0.869775
     2  C   -0.505866
     3  N   -0.442782
     4  N   -0.442756
     5  C    0.211154
     6  C    0.211154
     7  C    0.202760
     8  C    0.202844
     9  C   -0.049108
    10  C   -0.048947
    11  C    0.315821
    12  C   -0.052581
    13  C    0.114034
    14  C   -0.249547
    15  C    0.315797
    16  C   -0.175578
    17  C   -0.052494
    18  C    0.113930
    19  H    0.051365
    20  C   -0.249466
    21  C   -0.381179
    22  F   -0.208272
    23  F   -0.208288
    24  H    0.077859
    25  C    0.668174
    26  H    0.061237
    27  H    0.077861
    28  C    0.668166
    29  H    0.051351
    30  H    0.061152
    31  C   -0.104512
    32  C   -0.078256
    33  C   -0.012282
    34  C   -0.012404
    35  C   -0.109400
    36  C   -0.109353
    37  C    0.220292
    38  N   -0.421000
    39  H    0.047601
    40  F   -0.195988
    41  F   -0.188347
    42  F   -0.195552
    43  F   -0.188254
    44  F   -0.195663
    45  F   -0.196115
    46  H    0.010212
    47  H    0.009121
    48  H    0.009114
    49  H    0.010213
    50  C    0.102300
    51  C    0.102314
    52  H    0.046065
    53  H    0.045822
    54  H    0.052300
    55  H    0.045876
    56  H    0.046016
    57  H    0.052306
 Sum of Mulliken charges =  -0.00000

 Dipole moment (field-independent basis, Debye):
    X=             -3.7419    Y=             -0.0284    Z=             -0.4321  Tot=              3.7669
 Quadrupole moment (field-independent basis, Debye-Ang):
   XX=           -162.0773   YY=           -216.6347   ZZ=           -249.4332
   XY=              0.1633   XZ=             -1.2875   YZ=             -1.0379

  Exact polarizability:     902.572       0.438     682.849       2.603      -2.975     243.761
 Approx polarizability:     969.519       0.489     757.757       5.005      -3.678     286.678

 Normal termination of Gaussian 16 at Fri May  5 11:55:48 2023.
