 Gaussian 09, Revision D.01,
 Gaussian 09:  EM64L-G09RevD.01 24-Apr-2013

 ----------------------------------------------------------------------
 #p B97D3/gen gfinput pseudo=read Integral(Grid=UltraFine,Acc2E=12) scf
 =maxcycle=200 Polar=(DCSHG) CPHF=RdFreq scrf=(iefpcm,read,solvent=n,n-
 DiMethylFormamide)
 ----------------------------------------------------------------------

 ------------------------------
 Primeira Hiperpolarizabilidade
 ------------------------------
 Symbolic Z-matrix:
 Charge =  0 Multiplicity = 1

                         Standard orientation:
 ---------------------------------------------------------------------
 Center     Atomic      Atomic             Coordinates (Angstroms)
 Number     Number       Type             X           Y           Z
 ---------------------------------------------------------------------
      1         78           0       -1.008098   -0.002554    0.023564
      2          6           0        1.040778    0.006667    0.073725
      3          7           0       -1.351872   -2.030588    0.021851
      4          7           0       -1.371945    2.022246    0.008714
      5          6           0       -0.428755    2.975399    0.046602
      6          6           0       -0.398749   -2.973631    0.063676
      7          6           0       -2.709059    2.370497   -0.042286
      8          6           0       -2.685437   -2.392870   -0.022148
      9          6           0       -3.612802   -1.258328   -0.063032
     10          6           0       -3.625038    1.226485   -0.074159
     11          6           0       -5.026887    1.184638   -0.123314
     12          6           0       -3.072336    3.724957   -0.058798
     13          6           0       -2.092344    4.709726   -0.020417
     14          6           0       -0.744979    4.330839    0.035451
     15          6           0       -5.014989   -1.230646   -0.112194
     16          6           0       -5.723602   -0.026574   -0.142658
     17          6           0       -3.034925   -3.751150   -0.020208
     18          6           0       -2.044755   -4.725434    0.024916
     19          1           0       -4.086756   -4.028898   -0.051962
     20          6           0       -0.700943   -4.332187    0.066180
     21          6           0       -2.958548   -0.012536   -0.045884
     22          9           0       -5.721231   -2.369921   -0.130392
     23          9           0       -5.744306    2.316719   -0.152261
     24          1           0        0.628075   -2.608296    0.098527
     25          6           0        0.398456   -5.362280    0.086817
     26          1           0       -2.317869   -5.782506    0.030833
     27          1           0        0.601877    2.621014    0.083278
     28          6           0        0.341059    5.372771    0.108014
     29          1           0       -4.126636    3.991341   -0.102923
     30          1           0       -2.375743    5.763900   -0.037457
     31          6           0        2.277388    0.010047    0.060642
     32          6           0        3.707803    0.013889    0.028194
     33          6           0        4.447523    1.218101   -0.023999
     34          6           0        4.455580   -1.186484    0.034584
     35          6           0        5.837091    1.229508   -0.071927
     36          6           0        5.845235   -1.190853   -0.012570
     37          6           0        6.585491    0.021156   -0.070201
     38          7           0        7.961809    0.024529   -0.122795
     39          1           0       -6.813007   -0.032125   -0.180343
     40          9           0        0.164122    6.329015   -0.821111
     41          9           0        1.561974    4.845788   -0.078463
     42          9           0        0.351159    5.992134    1.303574
     43          9           0        1.600000   -4.815854    0.333542
     44          9           0        0.487574   -6.010889   -1.089708
     45          9           0        0.175966   -6.297350    1.027787
     46          1           0        3.910527    2.170366   -0.029839
     47          1           0        6.346824    2.191499   -0.112978
     48          1           0        6.361574   -2.150201   -0.005956
     49          1           0        3.925014   -2.141478    0.075718
     50          6           0        8.685382    1.280513   -0.185956
     51          6           0        8.693844   -1.228146   -0.124189
     52          1           0        8.491668    1.917745    0.696229
     53          1           0        8.422404    1.868758   -1.084316
     54          1           0        9.762669    1.077961   -0.222194
     55          1           0        8.432484   -1.862719   -0.990876
     56          1           0        8.506737   -1.821220    0.789689
     57          1           0        9.769630   -1.020470   -0.173730
 ---------------------------------------------------------------------

 SCF Done:  E(RB97D3) =  -2156.99374276     A.U. after   15 cycles

 The electronic state is 1-A.
 Alpha  occ. eigenvalues --  -24.29616 -24.29612 -24.29200 -24.29190 -24.29045
 Alpha  occ. eigenvalues --  -24.29042 -24.29015 -24.29007 -14.08610 -14.08609
 Alpha  occ. eigenvalues --  -14.03063 -10.16806 -10.16806 -10.02735 -10.02734
 Alpha  occ. eigenvalues --   -9.99785  -9.99783  -9.98763  -9.98755  -9.96318
 Alpha  occ. eigenvalues --   -9.96313  -9.96178  -9.96176  -9.95523  -9.95183
 Alpha  occ. eigenvalues --   -9.95178  -9.94680  -9.94673  -9.94279  -9.94277
 Alpha  occ. eigenvalues --   -9.93796  -9.93093  -9.92386  -9.91651  -9.91649
 Alpha  occ. eigenvalues --   -9.91088  -9.91087  -9.88313  -9.87823  -3.79315
 Alpha  occ. eigenvalues --   -2.05883  -2.05543  -2.02296  -1.20701  -1.20701
 Alpha  occ. eigenvalues --   -1.13556  -1.13508  -1.11905  -1.11904  -1.11413
 Alpha  occ. eigenvalues --   -1.11411  -0.90948  -0.90587  -0.86523  -0.80656
 Alpha  occ. eigenvalues --   -0.77261  -0.77201  -0.76467  -0.75131  -0.73961
 Alpha  occ. eigenvalues --   -0.69840  -0.69777  -0.68800  -0.67252  -0.65262
 Alpha  occ. eigenvalues --   -0.64704  -0.64666  -0.63169  -0.61454  -0.60812
 Alpha  occ. eigenvalues --   -0.60396  -0.59745  -0.58895  -0.57051  -0.56577
 Alpha  occ. eigenvalues --   -0.54249  -0.54181  -0.53915  -0.53910  -0.53826
 Alpha  occ. eigenvalues --   -0.53704  -0.53363  -0.52267  -0.51871  -0.49994
 Alpha  occ. eigenvalues --   -0.49612  -0.48023  -0.47949  -0.47215  -0.46464
 Alpha  occ. eigenvalues --   -0.45068  -0.44027  -0.43635  -0.43525  -0.43004
 Alpha  occ. eigenvalues --   -0.42696  -0.42613  -0.42272  -0.41522  -0.41481
 Alpha  occ. eigenvalues --   -0.41277  -0.41253  -0.41216  -0.40922  -0.40731
 Alpha  occ. eigenvalues --   -0.40629  -0.39829  -0.39772  -0.39361  -0.38984
 Alpha  occ. eigenvalues --   -0.37973  -0.37817  -0.37783  -0.37523  -0.37463
 Alpha  occ. eigenvalues --   -0.37046  -0.35951  -0.35743  -0.35725  -0.35575
 Alpha  occ. eigenvalues --   -0.35569  -0.35179  -0.35061  -0.34475  -0.34028
 Alpha  occ. eigenvalues --   -0.33872  -0.33313  -0.33243  -0.33186  -0.33131
 Alpha  occ. eigenvalues --   -0.31548  -0.30654  -0.29704  -0.29499  -0.29335
 Alpha  occ. eigenvalues --   -0.27950  -0.27336  -0.26100  -0.25612  -0.24762
 Alpha  occ. eigenvalues --   -0.23078  -0.22505  -0.22445  -0.21332  -0.21050
 Alpha  occ. eigenvalues --   -0.19921  -0.19606  -0.15679
 Alpha virt. eigenvalues --   -0.11187  -0.10707  -0.08113  -0.07780  -0.04620
 Alpha virt. eigenvalues --   -0.04442  -0.03187  -0.02785  -0.01908   0.01325
 Alpha virt. eigenvalues --    0.02409   0.02814   0.03627   0.04262   0.04529

 Mulliken charges:
               1
     1  Pt   0.688514
     2  C   -0.487669
     3  N   -0.331652
     4  N   -0.331665
     5  C    0.163444
     6  C    0.163469
     7  C    0.169063
     8  C    0.169118
     9  C    0.022065
    10  C    0.022224
    11  C    0.256314
    12  C   -0.041169
    13  C    0.107482
    14  C   -0.160234
    15  C    0.256287
    16  C   -0.152833
    17  C   -0.041118
    18  C    0.107339
    19  H    0.016946
    20  C   -0.160123
    21  C   -0.367090
    22  F   -0.174100
    23  F   -0.174113
    24  H    0.046963
    25  C    0.553597
    26  H    0.026577
    27  H    0.046964
    28  C    0.553589
    29  H    0.016925
    30  H    0.026483
    31  C   -0.045028
    32  C   -0.028711
    33  C   -0.015467
    34  C   -0.015582
    35  C   -0.081129
    36  C   -0.081074
    37  C    0.203720
    38  N   -0.319102
    39  H    0.012167
    40  F   -0.165916
    41  F   -0.157319
    42  F   -0.165340
    43  F   -0.157201
    44  F   -0.165470
    45  F   -0.166050
    46  H   -0.022975
    47  H   -0.024599
    48  H   -0.024606
    49  H   -0.022956
    50  C    0.138607
    51  C    0.138614
    52  H    0.027465
    53  H    0.027200
    54  H    0.032236
    55  H    0.027267
    56  H    0.027409
    57  H    0.032243
 Sum of Mulliken charges =   0.00000

 Dipole moment (field-independent basis, Debye):
    X=             -2.6174    Y=             -0.0248    Z=             -0.4368  Tot=              2.6537
 Quadrupole moment (field-independent basis, Debye-Ang):
   XX=           -157.1295   YY=           -218.9115   ZZ=           -248.2518
   XY=              0.1885   XZ=             -1.3377   YZ=             -0.9680

  Exact polarizability:1150.994   0.977 754.856   1.976  -3.161 248.085
 Approx polarizability:1628.671   1.4911078.530   6.360  -5.198 332.686

 Normal termination of Gaussian 09 at Sat Feb  4 01:55:03 2023.
