 Gaussian 16, Revision C.01,
 Gaussian 16:  EM64L-G16RevC.01  3-Jul-2019

 ----------------------------------------------------------------------
 #p BB95/gen gfinput pseudo=read scf=maxcycle=200 Polar=(DCSHG) CPHF=Rd
 Freq scrf=(iefpcm,read,solvent=n,n-DiMethylFormamide)
 ----------------------------------------------------------------------

 ------------------------------
 Primeira Hiperpolarizabilidade
 ------------------------------
 Symbolic Z-matrix:
 Charge =  0 Multiplicity = 1

                         Standard orientation:
 ---------------------------------------------------------------------
 Center     Atomic      Atomic             Coordinates (Angstroms)
 Number     Number       Type             X           Y           Z
 ---------------------------------------------------------------------
      1         78           0       -1.008098   -0.002554    0.023564
      2          6           0        1.040778    0.006667    0.073725
      3          7           0       -1.351872   -2.030588    0.021851
      4          7           0       -1.371945    2.022246    0.008714
      5          6           0       -0.428755    2.975399    0.046602
      6          6           0       -0.398749   -2.973631    0.063676
      7          6           0       -2.709059    2.370497   -0.042286
      8          6           0       -2.685437   -2.392870   -0.022148
      9          6           0       -3.612802   -1.258328   -0.063032
     10          6           0       -3.625038    1.226485   -0.074159
     11          6           0       -5.026887    1.184638   -0.123314
     12          6           0       -3.072336    3.724957   -0.058798
     13          6           0       -2.092344    4.709726   -0.020417
     14          6           0       -0.744979    4.330839    0.035451
     15          6           0       -5.014989   -1.230646   -0.112194
     16          6           0       -5.723602   -0.026574   -0.142658
     17          6           0       -3.034925   -3.751150   -0.020208
     18          6           0       -2.044755   -4.725434    0.024916
     19          1           0       -4.086756   -4.028898   -0.051962
     20          6           0       -0.700943   -4.332187    0.066180
     21          6           0       -2.958548   -0.012536   -0.045884
     22          9           0       -5.721231   -2.369921   -0.130392
     23          9           0       -5.744306    2.316719   -0.152261
     24          1           0        0.628075   -2.608296    0.098527
     25          6           0        0.398456   -5.362280    0.086817
     26          1           0       -2.317869   -5.782506    0.030833
     27          1           0        0.601877    2.621014    0.083278
     28          6           0        0.341059    5.372771    0.108014
     29          1           0       -4.126636    3.991341   -0.102923
     30          1           0       -2.375743    5.763900   -0.037457
     31          6           0        2.277388    0.010047    0.060642
     32          6           0        3.707803    0.013889    0.028194
     33          6           0        4.447523    1.218101   -0.023999
     34          6           0        4.455580   -1.186484    0.034584
     35          6           0        5.837091    1.229508   -0.071927
     36          6           0        5.845235   -1.190853   -0.012570
     37          6           0        6.585491    0.021156   -0.070201
     38          7           0        7.961809    0.024529   -0.122795
     39          1           0       -6.813007   -0.032125   -0.180343
     40          9           0        0.164122    6.329015   -0.821111
     41          9           0        1.561974    4.845788   -0.078463
     42          9           0        0.351159    5.992134    1.303574
     43          9           0        1.600000   -4.815854    0.333542
     44          9           0        0.487574   -6.010889   -1.089708
     45          9           0        0.175966   -6.297350    1.027787
     46          1           0        3.910527    2.170366   -0.029839
     47          1           0        6.346824    2.191499   -0.112978
     48          1           0        6.361574   -2.150201   -0.005956
     49          1           0        3.925014   -2.141478    0.075718
     50          6           0        8.685382    1.280513   -0.185956
     51          6           0        8.693844   -1.228146   -0.124189
     52          1           0        8.491668    1.917745    0.696229
     53          1           0        8.422404    1.868758   -1.084316
     54          1           0        9.762669    1.077961   -0.222194
     55          1           0        8.432484   -1.862719   -0.990876
     56          1           0        8.506737   -1.821220    0.789689
     57          1           0        9.769630   -1.020470   -0.173730
 ---------------------------------------------------------------------

 SCF Done:  E(RB-B95) =  -2157.53469671     A.U. after   16 cycles

 The electronic state is 1-A.
 Alpha  occ. eigenvalues --  -24.31738 -24.31732 -24.31306 -24.31296 -24.31245
 Alpha  occ. eigenvalues --  -24.31243 -24.31112 -24.31103 -14.08715 -14.08714
 Alpha  occ. eigenvalues --  -14.03327 -10.15516 -10.15516 -10.01786 -10.01784
 Alpha  occ. eigenvalues --   -9.98935  -9.98933  -9.97919  -9.97911  -9.95476
 Alpha  occ. eigenvalues --   -9.95475  -9.95437  -9.95433  -9.94786  -9.94441
 Alpha  occ. eigenvalues --   -9.94437  -9.93909  -9.93902  -9.93604  -9.93602
 Alpha  occ. eigenvalues --   -9.93052  -9.92419  -9.91693  -9.90897  -9.90895
 Alpha  occ. eigenvalues --   -9.90419  -9.90418  -9.87648  -9.87146  -3.76739
 Alpha  occ. eigenvalues --   -2.04148  -2.03701  -2.00502  -1.18603  -1.18603
 Alpha  occ. eigenvalues --   -1.11610  -1.11565  -1.09868  -1.09867  -1.09372
 Alpha  occ. eigenvalues --   -1.09370  -0.89161  -0.88800  -0.84849  -0.78902
 Alpha  occ. eigenvalues --   -0.75531  -0.75475  -0.74796  -0.73427  -0.72288
 Alpha  occ. eigenvalues --   -0.68221  -0.68136  -0.67220  -0.65752  -0.63793
 Alpha  occ. eigenvalues --   -0.63254  -0.63211  -0.61659  -0.60124  -0.59476
 Alpha  occ. eigenvalues --   -0.59030  -0.58434  -0.57478  -0.55777  -0.55320
 Alpha  occ. eigenvalues --   -0.53151  -0.53143  -0.52826  -0.52820  -0.52743
 Alpha  occ. eigenvalues --   -0.52457  -0.52302  -0.51201  -0.50678  -0.48945
 Alpha  occ. eigenvalues --   -0.48448  -0.47142  -0.46856  -0.46140  -0.45371
 Alpha  occ. eigenvalues --   -0.44059  -0.43322  -0.42682  -0.42679  -0.41928
 Alpha  occ. eigenvalues --   -0.41828  -0.41696  -0.41248  -0.40623  -0.40595
 Alpha  occ. eigenvalues --   -0.40532  -0.40224  -0.40190  -0.40136  -0.40029
 Alpha  occ. eigenvalues --   -0.39858  -0.38890  -0.38770  -0.38409  -0.37965
 Alpha  occ. eigenvalues --   -0.37114  -0.36801  -0.36751  -0.36419  -0.36351
 Alpha  occ. eigenvalues --   -0.36130  -0.34985  -0.34915  -0.34805  -0.34436
 Alpha  occ. eigenvalues --   -0.34423  -0.34271  -0.34017  -0.33478  -0.33421
 Alpha  occ. eigenvalues --   -0.32999  -0.32845  -0.32525  -0.32182  -0.32180
 Alpha  occ. eigenvalues --   -0.30790  -0.30359  -0.29429  -0.29068  -0.28623
 Alpha  occ. eigenvalues --   -0.27619  -0.27062  -0.25812  -0.25291  -0.24180
 Alpha  occ. eigenvalues --   -0.22826  -0.22296  -0.22279  -0.21048  -0.20607
 Alpha  occ. eigenvalues --   -0.19624  -0.19343  -0.15483
 Alpha virt. eigenvalues --   -0.11252  -0.10737  -0.08255  -0.07980  -0.04763
 Alpha virt. eigenvalues --   -0.04247  -0.03387  -0.02948  -0.02146   0.01533
 Alpha virt. eigenvalues --    0.02910   0.02927   0.03348   0.04419   0.04564

 Mulliken charges:
               1
     1  Pt   0.672713
     2  C   -0.491623
     3  N   -0.286862
     4  N   -0.286779
     5  C    0.140040
     6  C    0.139998
     7  C    0.136325
     8  C    0.136433
     9  C    0.058226
    10  C    0.058354
    11  C    0.212063
    12  C   -0.032313
    13  C    0.100522
    14  C   -0.118114
    15  C    0.212011
    16  C   -0.141517
    17  C   -0.032228
    18  C    0.100548
    19  H    0.011011
    20  C   -0.118151
    21  C   -0.414951
    22  F   -0.139101
    23  F   -0.139118
    24  H    0.038925
    25  C    0.437133
    26  H    0.023056
    27  H    0.038896
    28  C    0.437140
    29  H    0.011010
    30  H    0.022937
    31  C   -0.044647
    32  C   -0.010380
    33  C   -0.021905
    34  C   -0.022225
    35  C   -0.065447
    36  C   -0.065377
    37  C    0.176755
    38  N   -0.266780
    39  H    0.007228
    40  F   -0.134704
    41  F   -0.125317
    42  F   -0.134059
    43  F   -0.125175
    44  F   -0.134189
    45  F   -0.134844
    46  H   -0.024442
    47  H   -0.031094
    48  H   -0.031107
    49  H   -0.024166
    50  C    0.108980
    51  C    0.108968
    52  H    0.033593
    53  H    0.033352
    54  H    0.036712
    55  H    0.033401
    56  H    0.033564
    57  H    0.036721
 Sum of Mulliken charges =  -0.00000

 Dipole moment (field-independent basis, Debye):
    X=             -2.1363    Y=             -0.0243    Z=             -0.4372  Tot=              2.1807
 Quadrupole moment (field-independent basis, Debye-Ang):
   XX=           -153.5806   YY=           -218.0153   ZZ=           -248.0885
   XY=              0.1963   XZ=             -1.3402   YZ=             -0.9660

  Exact polarizability:    1212.149       1.184     769.761       1.721      -3.175     247.580
 Approx polarizability:    1759.299       1.760    1122.949       6.201      -5.372     336.812

 Normal termination of Gaussian 16 at Fri May 12 02:27:17 2023.
