 Gaussian 16, Revision C.01,
 Gaussian 16:  EM64L-G16RevC.01  3-Jul-2019

 ----------------------------------------------------------------------
 #p BHandH/gen gfinput pseudo=read scf=maxcycle=200 Polar=(DCSHG) CPHF=
 RdFreq scrf=(iefpcm,read,solvent=n,n-DiMethylFormamide)
 ----------------------------------------------------------------------

 ------------------------------
 Primeira Hiperpolarizabilidade
 ------------------------------
 Symbolic Z-matrix:
 Charge =  0 Multiplicity = 1

                         Standard orientation:
 ---------------------------------------------------------------------
 Center     Atomic      Atomic             Coordinates (Angstroms)
 Number     Number       Type             X           Y           Z
 ---------------------------------------------------------------------
      1         78           0       -1.008098   -0.002554    0.023564
      2          6           0        1.040778    0.006667    0.073725
      3          7           0       -1.351872   -2.030588    0.021851
      4          7           0       -1.371945    2.022246    0.008714
      5          6           0       -0.428755    2.975399    0.046602
      6          6           0       -0.398749   -2.973631    0.063676
      7          6           0       -2.709059    2.370497   -0.042286
      8          6           0       -2.685437   -2.392870   -0.022148
      9          6           0       -3.612802   -1.258328   -0.063032
     10          6           0       -3.625038    1.226485   -0.074159
     11          6           0       -5.026887    1.184638   -0.123314
     12          6           0       -3.072336    3.724957   -0.058798
     13          6           0       -2.092344    4.709726   -0.020417
     14          6           0       -0.744979    4.330839    0.035451
     15          6           0       -5.014989   -1.230646   -0.112194
     16          6           0       -5.723602   -0.026574   -0.142658
     17          6           0       -3.034925   -3.751150   -0.020208
     18          6           0       -2.044755   -4.725434    0.024916
     19          1           0       -4.086756   -4.028898   -0.051962
     20          6           0       -0.700943   -4.332187    0.066180
     21          6           0       -2.958548   -0.012536   -0.045884
     22          9           0       -5.721231   -2.369921   -0.130392
     23          9           0       -5.744306    2.316719   -0.152261
     24          1           0        0.628075   -2.608296    0.098527
     25          6           0        0.398456   -5.362280    0.086817
     26          1           0       -2.317869   -5.782506    0.030833
     27          1           0        0.601877    2.621014    0.083278
     28          6           0        0.341059    5.372771    0.108014
     29          1           0       -4.126636    3.991341   -0.102923
     30          1           0       -2.375743    5.763900   -0.037457
     31          6           0        2.277388    0.010047    0.060642
     32          6           0        3.707803    0.013889    0.028194
     33          6           0        4.447523    1.218101   -0.023999
     34          6           0        4.455580   -1.186484    0.034584
     35          6           0        5.837091    1.229508   -0.071927
     36          6           0        5.845235   -1.190853   -0.012570
     37          6           0        6.585491    0.021156   -0.070201
     38          7           0        7.961809    0.024529   -0.122795
     39          1           0       -6.813007   -0.032125   -0.180343
     40          9           0        0.164122    6.329015   -0.821111
     41          9           0        1.561974    4.845788   -0.078463
     42          9           0        0.351159    5.992134    1.303574
     43          9           0        1.600000   -4.815854    0.333542
     44          9           0        0.487574   -6.010889   -1.089708
     45          9           0        0.175966   -6.297350    1.027787
     46          1           0        3.910527    2.170366   -0.029839
     47          1           0        6.346824    2.191499   -0.112978
     48          1           0        6.361574   -2.150201   -0.005956
     49          1           0        3.925014   -2.141478    0.075718
     50          6           0        8.685382    1.280513   -0.185956
     51          6           0        8.693844   -1.228146   -0.124189
     52          1           0        8.491668    1.917745    0.696229
     53          1           0        8.422404    1.868758   -1.084316
     54          1           0        9.762669    1.077961   -0.222194
     55          1           0        8.432484   -1.862719   -0.990876
     56          1           0        8.506737   -1.821220    0.789689
     57          1           0        9.769630   -1.020470   -0.173730
 ---------------------------------------------------------------------

 SCF Done:  E(RBHandH) =  -2144.28865351     A.U. after   16 cycles

 The electronic state is 1-A.
 Alpha  occ. eigenvalues --  -25.24457 -25.24451 -25.23937 -25.23923 -25.23690
 Alpha  occ. eigenvalues --  -25.23680 -25.23273 -25.23270 -14.80597 -14.80596
 Alpha  occ. eigenvalues --  -14.73304 -10.78343 -10.78342 -10.63835 -10.63833
 Alpha  occ. eigenvalues --  -10.60962 -10.60959 -10.59649 -10.59640 -10.57127
 Alpha  occ. eigenvalues --  -10.57122 -10.56602 -10.56600 -10.55753 -10.55267
 Alpha  occ. eigenvalues --  -10.55263 -10.54498 -10.54496 -10.53803 -10.53384
 Alpha  occ. eigenvalues --  -10.53340 -10.53331 -10.52127 -10.51552 -10.51550
 Alpha  occ. eigenvalues --  -10.50634 -10.50633 -10.48237 -10.47737  -4.14325
 Alpha  occ. eigenvalues --   -2.31137  -2.30916  -2.27781  -1.46910  -1.46909
 Alpha  occ. eigenvalues --   -1.38766  -1.38712  -1.37361  -1.37359  -1.36799
 Alpha  occ. eigenvalues --   -1.36797  -1.11850  -1.11406  -1.06171  -1.00391
 Alpha  occ. eigenvalues --   -0.96399  -0.96309  -0.95473  -0.93778  -0.92417
 Alpha  occ. eigenvalues --   -0.87801  -0.87786  -0.86321  -0.84462  -0.82612
 Alpha  occ. eigenvalues --   -0.82066  -0.80748  -0.79923  -0.77638  -0.77579
 Alpha  occ. eigenvalues --   -0.76415  -0.76143  -0.74412  -0.72855  -0.72248
 Alpha  occ. eigenvalues --   -0.70296  -0.70138  -0.70134  -0.69963  -0.69517
 Alpha  occ. eigenvalues --   -0.69010  -0.68296  -0.66972  -0.66040  -0.64778
 Alpha  occ. eigenvalues --   -0.64023  -0.62242  -0.61257  -0.60949  -0.60551
 Alpha  occ. eigenvalues --   -0.59380  -0.58304  -0.58088  -0.58079  -0.57810
 Alpha  occ. eigenvalues --   -0.57796  -0.57509  -0.56414  -0.55905  -0.55760
 Alpha  occ. eigenvalues --   -0.55701  -0.55061  -0.54274  -0.54092  -0.54066
 Alpha  occ. eigenvalues --   -0.53469  -0.53368  -0.53348  -0.53053  -0.52436
 Alpha  occ. eigenvalues --   -0.52392  -0.52330  -0.51684  -0.51666  -0.51101
 Alpha  occ. eigenvalues --   -0.50892  -0.49230  -0.48901  -0.48485  -0.48192
 Alpha  occ. eigenvalues --   -0.48125  -0.46545  -0.46119  -0.45824  -0.45770
 Alpha  occ. eigenvalues --   -0.45346  -0.45197  -0.44026  -0.43805  -0.43432
 Alpha  occ. eigenvalues --   -0.42451  -0.40261  -0.39493  -0.38696  -0.38190
 Alpha  occ. eigenvalues --   -0.37644  -0.36187  -0.36081  -0.34785  -0.34559
 Alpha  occ. eigenvalues --   -0.31333  -0.30317  -0.29969  -0.29958  -0.28955
 Alpha  occ. eigenvalues --   -0.28275  -0.27415  -0.21772
 Alpha virt. eigenvalues --   -0.06029  -0.05650  -0.01717  -0.01347   0.01260
 Alpha virt. eigenvalues --    0.03464   0.03724   0.04068   0.05348   0.05572
 Alpha virt. eigenvalues --    0.05748   0.06030   0.09882   0.11003   0.11124

 Mulliken charges:
               1
     1  Pt   0.902244
     2  C   -0.501682
     3  N   -0.465218
     4  N   -0.465157
     5  C    0.193321
     6  C    0.193356
     7  C    0.201066
     8  C    0.201139
     9  C   -0.049592
    10  C   -0.049451
    11  C    0.313403
    12  C   -0.072316
    13  C    0.087175
    14  C   -0.247188
    15  C    0.313370
    16  C   -0.180773
    17  C   -0.072150
    18  C    0.087050
    19  H    0.085220
    20  C   -0.247057
    21  C   -0.384379
    22  F   -0.226878
    23  F   -0.226895
    24  H    0.102284
    25  C    0.690294
    26  H    0.103499
    27  H    0.102478
    28  C    0.690329
    29  H    0.085204
    30  H    0.103374
    31  C   -0.136370
    32  C   -0.067286
    33  C   -0.038626
    34  C   -0.038692
    35  C   -0.131968
    36  C   -0.131925
    37  C    0.215177
    38  N   -0.431313
    39  H    0.085046
    40  F   -0.209539
    41  F   -0.202118
    42  F   -0.208934
    43  F   -0.202025
    44  F   -0.209048
    45  F   -0.209645
    46  H    0.044778
    47  H    0.040617
    48  H    0.040610
    49  H    0.044719
    50  C    0.006650
    51  C    0.006674
    52  H    0.075758
    53  H    0.075520
    54  H    0.082293
    55  H    0.075552
    56  H    0.075725
    57  H    0.082298
 Sum of Mulliken charges =  -0.00000

 Dipole moment (field-independent basis, Debye):
    X=             -4.3523    Y=             -0.0307    Z=             -0.4375  Tot=              4.3743
 Quadrupole moment (field-independent basis, Debye-Ang):
   XX=           -166.4974   YY=           -217.9268   ZZ=           -253.3864
   XY=              0.1566   XZ=             -1.2584   YZ=             -1.1452

  Exact polarizability:     781.915       0.274     626.210       2.573      -2.853     239.583
 Approx polarizability:     665.278       0.237     554.771       3.349      -2.643     250.488

 Normal termination of Gaussian 16 at Fri May  5 13:11:11 2023.
