 Gaussian 16, Revision C.01,
 Gaussian 16:  EM64L-G16RevC.01  3-Jul-2019

 ----------------------------------------------------------------------
 #p BHandHLYP/gen gfinput pseudo=read scf=maxcycle=200 Polar=(DCSHG) CP
 HF=RdFreq scrf=(iefpcm,read,solvent=n,n-DiMethylFormamide)
 ----------------------------------------------------------------------

 ------------------------------
 Primeira Hiperpolarizabilidade
 ------------------------------
 Symbolic Z-matrix:
 Charge =  0 Multiplicity = 1

                         Standard orientation:
 ---------------------------------------------------------------------
 Center     Atomic      Atomic             Coordinates (Angstroms)
 Number     Number       Type             X           Y           Z
 ---------------------------------------------------------------------
      1         78           0       -1.008098   -0.002554    0.023564
      2          6           0        1.040778    0.006667    0.073725
      3          7           0       -1.351872   -2.030588    0.021851
      4          7           0       -1.371945    2.022246    0.008714
      5          6           0       -0.428755    2.975399    0.046602
      6          6           0       -0.398749   -2.973631    0.063676
      7          6           0       -2.709059    2.370497   -0.042286
      8          6           0       -2.685437   -2.392870   -0.022148
      9          6           0       -3.612802   -1.258328   -0.063032
     10          6           0       -3.625038    1.226485   -0.074159
     11          6           0       -5.026887    1.184638   -0.123314
     12          6           0       -3.072336    3.724957   -0.058798
     13          6           0       -2.092344    4.709726   -0.020417
     14          6           0       -0.744979    4.330839    0.035451
     15          6           0       -5.014989   -1.230646   -0.112194
     16          6           0       -5.723602   -0.026574   -0.142658
     17          6           0       -3.034925   -3.751150   -0.020208
     18          6           0       -2.044755   -4.725434    0.024916
     19          1           0       -4.086756   -4.028898   -0.051962
     20          6           0       -0.700943   -4.332187    0.066180
     21          6           0       -2.958548   -0.012536   -0.045884
     22          9           0       -5.721231   -2.369921   -0.130392
     23          9           0       -5.744306    2.316719   -0.152261
     24          1           0        0.628075   -2.608296    0.098527
     25          6           0        0.398456   -5.362280    0.086817
     26          1           0       -2.317869   -5.782506    0.030833
     27          1           0        0.601877    2.621014    0.083278
     28          6           0        0.341059    5.372771    0.108014
     29          1           0       -4.126636    3.991341   -0.102923
     30          1           0       -2.375743    5.763900   -0.037457
     31          6           0        2.277388    0.010047    0.060642
     32          6           0        3.707803    0.013889    0.028194
     33          6           0        4.447523    1.218101   -0.023999
     34          6           0        4.455580   -1.186484    0.034584
     35          6           0        5.837091    1.229508   -0.071927
     36          6           0        5.845235   -1.190853   -0.012570
     37          6           0        6.585491    0.021156   -0.070201
     38          7           0        7.961809    0.024529   -0.122795
     39          1           0       -6.813007   -0.032125   -0.180343
     40          9           0        0.164122    6.329015   -0.821111
     41          9           0        1.561974    4.845788   -0.078463
     42          9           0        0.351159    5.992134    1.303574
     43          9           0        1.600000   -4.815854    0.333542
     44          9           0        0.487574   -6.010889   -1.089708
     45          9           0        0.175966   -6.297350    1.027787
     46          1           0        3.910527    2.170366   -0.029839
     47          1           0        6.346824    2.191499   -0.112978
     48          1           0        6.361574   -2.150201   -0.005956
     49          1           0        3.925014   -2.141478    0.075718
     50          6           0        8.685382    1.280513   -0.185956
     51          6           0        8.693844   -1.228146   -0.124189
     52          1           0        8.491668    1.917745    0.696229
     53          1           0        8.422404    1.868758   -1.084316
     54          1           0        9.762669    1.077961   -0.222194
     55          1           0        8.432484   -1.862719   -0.990876
     56          1           0        8.506737   -1.821220    0.789689
     57          1           0        9.769630   -1.020470   -0.173730
 ---------------------------------------------------------------------

 SCF Done:  E(RBHandHLYP) =  -2156.71290945     A.U. after   16 cycles

 The electronic state is 1-A.
 Alpha  occ. eigenvalues --  -25.35885 -25.35880 -25.35395 -25.35382 -25.35164
 Alpha  occ. eigenvalues --  -25.35155 -25.34617 -25.34615 -14.89252 -14.89250
 Alpha  occ. eigenvalues --  -14.82252 -10.87345 -10.87344 -10.72274 -10.72273
 Alpha  occ. eigenvalues --  -10.69305 -10.69301 -10.68157 -10.68148 -10.65644
 Alpha  occ. eigenvalues --  -10.65638 -10.64909 -10.64907 -10.64232 -10.63675
 Alpha  occ. eigenvalues --  -10.63670 -10.62731 -10.62729 -10.62413 -10.62407
 Alpha  occ. eigenvalues --  -10.62281 -10.61358 -10.60513 -10.60071 -10.60067
 Alpha  occ. eigenvalues --  -10.59130 -10.59129 -10.56148 -10.55464  -4.14729
 Alpha  occ. eigenvalues --   -2.31564  -2.31313  -2.28241  -1.47465  -1.47464
 Alpha  occ. eigenvalues --   -1.39376  -1.39324  -1.38149  -1.38147  -1.37606
 Alpha  occ. eigenvalues --   -1.37604  -1.11977  -1.11546  -1.06493  -1.00566
 Alpha  occ. eigenvalues --   -0.96718  -0.96633  -0.95782  -0.94081  -0.92725
 Alpha  occ. eigenvalues --   -0.88108  -0.88093  -0.86680  -0.84921  -0.82853
 Alpha  occ. eigenvalues --   -0.82340  -0.81252  -0.80227  -0.77804  -0.77680
 Alpha  occ. eigenvalues --   -0.76665  -0.76213  -0.74795  -0.72963  -0.72319
 Alpha  occ. eigenvalues --   -0.70232  -0.70069  -0.70064  -0.69953  -0.69463
 Alpha  occ. eigenvalues --   -0.69005  -0.68732  -0.66887  -0.66402  -0.64727
 Alpha  occ. eigenvalues --   -0.64112  -0.62209  -0.61325  -0.60913  -0.60541
 Alpha  occ. eigenvalues --   -0.59317  -0.58303  -0.58226  -0.58214  -0.57959
 Alpha  occ. eigenvalues --   -0.57936  -0.57714  -0.56647  -0.56074  -0.55856
 Alpha  occ. eigenvalues --   -0.55757  -0.55457  -0.54544  -0.54208  -0.54191
 Alpha  occ. eigenvalues --   -0.53726  -0.53659  -0.53545  -0.53332  -0.52598
 Alpha  occ. eigenvalues --   -0.52146  -0.52095  -0.51994  -0.51975  -0.51650
 Alpha  occ. eigenvalues --   -0.51005  -0.49378  -0.49135  -0.48932  -0.48321
 Alpha  occ. eigenvalues --   -0.48271  -0.46846  -0.46793  -0.46276  -0.46056
 Alpha  occ. eigenvalues --   -0.45725  -0.44941  -0.44334  -0.44148  -0.43659
 Alpha  occ. eigenvalues --   -0.42600  -0.40070  -0.40020  -0.38463  -0.37946
 Alpha  occ. eigenvalues --   -0.37483  -0.36123  -0.35970  -0.34645  -0.34513
 Alpha  occ. eigenvalues --   -0.31243  -0.30197  -0.29841  -0.29836  -0.28834
 Alpha  occ. eigenvalues --   -0.28098  -0.27357  -0.21778
 Alpha virt. eigenvalues --   -0.05680  -0.05403  -0.01453  -0.01047   0.01518
 Alpha virt. eigenvalues --    0.03645   0.03932   0.04517   0.05384   0.05824
 Alpha virt. eigenvalues --    0.05984   0.06270   0.09900   0.11367   0.11377

 Mulliken charges:
               1
     1  Pt   0.926423
     2  C   -0.502825
     3  N   -0.466025
     4  N   -0.465982
     5  C    0.212092
     6  C    0.212173
     7  C    0.222326
     8  C    0.222388
     9  C   -0.053821
    10  C   -0.053676
    11  C    0.334247
    12  C   -0.062105
    13  C    0.117136
    14  C   -0.235676
    15  C    0.334213
    16  C   -0.173489
    17  C   -0.062009
    18  C    0.116974
    19  H    0.051554
    20  C   -0.235576
    21  C   -0.359014
    22  F   -0.242536
    23  F   -0.242554
    24  H    0.077444
    25  C    0.740043
    26  H    0.065842
    27  H    0.077496
    28  C    0.740041
    29  H    0.051545
    30  H    0.065751
    31  C   -0.124342
    32  C   -0.064069
    33  C   -0.009511
    34  C   -0.009601
    35  C   -0.117425
    36  C   -0.117386
    37  C    0.241636
    38  N   -0.442724
    39  H    0.046256
    40  F   -0.225018
    41  F   -0.217371
    42  F   -0.224624
    43  F   -0.217282
    44  F   -0.224734
    45  F   -0.225135
    46  H    0.008624
    47  H    0.006245
    48  H    0.006241
    49  H    0.008600
    50  C    0.129991
    51  C    0.130014
    52  H    0.035508
    53  H    0.035256
    54  H    0.043842
    55  H    0.035309
    56  H    0.035455
    57  H    0.043847
 Sum of Mulliken charges =  -0.00000

 Dipole moment (field-independent basis, Debye):
    X=             -4.5556    Y=             -0.0310    Z=             -0.4231  Tot=              4.5753
 Quadrupole moment (field-independent basis, Debye-Ang):
   XX=           -172.4028   YY=           -220.4488   ZZ=           -251.3934
   XY=              0.1445   XZ=             -1.2786   YZ=             -1.0897

  Exact polarizability:     768.533       0.249     620.711       2.676      -2.849     237.358
 Approx polarizability:     649.186       0.221     544.792       3.360      -2.608     246.887

 Normal termination of Gaussian 16 at Fri May  5 14:26:43 2023.
