 Gaussian 09, Revision D.01,
 Gaussian 09:  EM64L-G09RevD.01 24-Apr-2013

 ----------------------------------------------------------------------
 #p BLYP/gen gfinput pseudo=read Integral(Grid=UltraFine,Acc2E=12) scf=
 maxcycle=200 Polar=(DCSHG) CPHF=RdFreq scrf=(iefpcm,read,solvent=n,n-D
 iMethylFormamide)
 ----------------------------------------------------------------------

 ------------------------------
 Primeira Hiperpolarizabilidade
 ------------------------------
 Symbolic Z-matrix:
 Charge =  0 Multiplicity = 1

                         Standard orientation:
 ---------------------------------------------------------------------
 Center     Atomic      Atomic             Coordinates (Angstroms)
 Number     Number       Type             X           Y           Z
 ---------------------------------------------------------------------
      1         78           0       -1.008098   -0.002554    0.023564
      2          6           0        1.040778    0.006667    0.073725
      3          7           0       -1.351872   -2.030588    0.021851
      4          7           0       -1.371945    2.022246    0.008714
      5          6           0       -0.428755    2.975399    0.046602
      6          6           0       -0.398749   -2.973631    0.063676
      7          6           0       -2.709059    2.370497   -0.042286
      8          6           0       -2.685437   -2.392870   -0.022148
      9          6           0       -3.612802   -1.258328   -0.063032
     10          6           0       -3.625038    1.226485   -0.074159
     11          6           0       -5.026887    1.184638   -0.123314
     12          6           0       -3.072336    3.724957   -0.058798
     13          6           0       -2.092344    4.709726   -0.020417
     14          6           0       -0.744979    4.330839    0.035451
     15          6           0       -5.014989   -1.230646   -0.112194
     16          6           0       -5.723602   -0.026574   -0.142658
     17          6           0       -3.034925   -3.751150   -0.020208
     18          6           0       -2.044755   -4.725434    0.024916
     19          1           0       -4.086756   -4.028898   -0.051962
     20          6           0       -0.700943   -4.332187    0.066180
     21          6           0       -2.958548   -0.012536   -0.045884
     22          9           0       -5.721231   -2.369921   -0.130392
     23          9           0       -5.744306    2.316719   -0.152261
     24          1           0        0.628075   -2.608296    0.098527
     25          6           0        0.398456   -5.362280    0.086817
     26          1           0       -2.317869   -5.782506    0.030833
     27          1           0        0.601877    2.621014    0.083278
     28          6           0        0.341059    5.372771    0.108014
     29          1           0       -4.126636    3.991341   -0.102923
     30          1           0       -2.375743    5.763900   -0.037457
     31          6           0        2.277388    0.010047    0.060642
     32          6           0        3.707803    0.013889    0.028194
     33          6           0        4.447523    1.218101   -0.023999
     34          6           0        4.455580   -1.186484    0.034584
     35          6           0        5.837091    1.229508   -0.071927
     36          6           0        5.845235   -1.190853   -0.012570
     37          6           0        6.585491    0.021156   -0.070201
     38          7           0        7.961809    0.024529   -0.122795
     39          1           0       -6.813007   -0.032125   -0.180343
     40          9           0        0.164122    6.329015   -0.821111
     41          9           0        1.561974    4.845788   -0.078463
     42          9           0        0.351159    5.992134    1.303574
     43          9           0        1.600000   -4.815854    0.333542
     44          9           0        0.487574   -6.010889   -1.089708
     45          9           0        0.175966   -6.297350    1.027787
     46          1           0        3.910527    2.170366   -0.029839
     47          1           0        6.346824    2.191499   -0.112978
     48          1           0        6.361574   -2.150201   -0.005956
     49          1           0        3.925014   -2.141478    0.075718
     50          6           0        8.685382    1.280513   -0.185956
     51          6           0        8.693844   -1.228146   -0.124189
     52          1           0        8.491668    1.917745    0.696229
     53          1           0        8.422404    1.868758   -1.084316
     54          1           0        9.762669    1.077961   -0.222194
     55          1           0        8.432484   -1.862719   -0.990876
     56          1           0        8.506737   -1.821220    0.789689
     57          1           0        9.769630   -1.020470   -0.173730
 ---------------------------------------------------------------------

 SCF Done:  E(RB-LYP) =  -2157.31060482     A.U. after   16 cycles

 The electronic state is 1-A.
 Alpha  occ. eigenvalues --  -24.33033 -24.33028 -24.32598 -24.32588 -24.32472
 Alpha  occ. eigenvalues --  -24.32469 -24.32401 -24.32392 -14.09295 -14.09293
 Alpha  occ. eigenvalues --  -14.04049 -10.16944 -10.16943 -10.02997 -10.02994
 Alpha  occ. eigenvalues --  -10.00062 -10.00060  -9.99157  -9.99149  -9.96721
 Alpha  occ. eigenvalues --   -9.96716  -9.96613  -9.96611  -9.96006  -9.95678
 Alpha  occ. eigenvalues --   -9.95674  -9.95347  -9.95339  -9.94617  -9.94615
 Alpha  occ. eigenvalues --   -9.94285  -9.93092  -9.92892  -9.92153  -9.92151
 Alpha  occ. eigenvalues --   -9.91643  -9.91642  -9.88806  -9.88039  -3.78378
 Alpha  occ. eigenvalues --   -2.05027  -2.04605  -2.01430  -1.19000  -1.19000
 Alpha  occ. eigenvalues --   -1.11880  -1.11833  -1.10207  -1.10205  -1.09703
 Alpha  occ. eigenvalues --   -1.09702  -0.89474  -0.89111  -0.85234  -0.79156
 Alpha  occ. eigenvalues --   -0.75856  -0.75801  -0.75168  -0.73730  -0.72578
 Alpha  occ. eigenvalues --   -0.68465  -0.68386  -0.67579  -0.66118  -0.63913
 Alpha  occ. eigenvalues --   -0.63617  -0.63358  -0.61998  -0.60271  -0.59555
 Alpha  occ. eigenvalues --   -0.59192  -0.58518  -0.57826  -0.55859  -0.55393
 Alpha  occ. eigenvalues --   -0.53132  -0.53108  -0.52731  -0.52724  -0.52714
 Alpha  occ. eigenvalues --   -0.52674  -0.52291  -0.51204  -0.50840  -0.48959
 Alpha  occ. eigenvalues --   -0.48489  -0.47210  -0.46836  -0.46211  -0.45447
 Alpha  occ. eigenvalues --   -0.44205  -0.43055  -0.42731  -0.42683  -0.42033
 Alpha  occ. eigenvalues --   -0.41847  -0.41599  -0.41393  -0.40640  -0.40448
 Alpha  occ. eigenvalues --   -0.40392  -0.40188  -0.40142  -0.39991  -0.39817
 Alpha  occ. eigenvalues --   -0.39734  -0.38927  -0.38750  -0.38611  -0.38026
 Alpha  occ. eigenvalues --   -0.37216  -0.36720  -0.36681  -0.36420  -0.36343
 Alpha  occ. eigenvalues --   -0.36335  -0.35192  -0.34986  -0.34945  -0.34438
 Alpha  occ. eigenvalues --   -0.34401  -0.34379  -0.34078  -0.33607  -0.33114
 Alpha  occ. eigenvalues --   -0.32965  -0.32745  -0.32474  -0.32390  -0.32251
 Alpha  occ. eigenvalues --   -0.30730  -0.29848  -0.28911  -0.28827  -0.28543
 Alpha  occ. eigenvalues --   -0.27191  -0.26575  -0.25276  -0.24848  -0.24017
 Alpha  occ. eigenvalues --   -0.22264  -0.21804  -0.21765  -0.20470  -0.20166
 Alpha  occ. eigenvalues --   -0.19130  -0.18881  -0.15026
 Alpha virt. eigenvalues --   -0.10552  -0.10031  -0.07540  -0.07226  -0.04079
 Alpha virt. eigenvalues --   -0.03440  -0.02728  -0.02226  -0.01329   0.01413
 Alpha virt. eigenvalues --    0.02260   0.02783   0.04043   0.04144   0.04550

 Mulliken charges:
               1
     1  Pt   0.593012
     2  C   -0.470342
     3  N   -0.233994
     4  N   -0.233999
     5  C    0.105307
     6  C    0.105403
     7  C    0.136823
     8  C    0.136857
     9  C    0.096565
    10  C    0.096687
    11  C    0.187765
    12  C   -0.031157
    13  C    0.096754
    14  C   -0.049340
    15  C    0.187713
    16  C   -0.129326
    17  C   -0.031121
    18  C    0.096581
    19  H   -0.015493
    20  C   -0.049200
    21  C   -0.368313
    22  F   -0.139182
    23  F   -0.139194
    24  H    0.018279
    25  C    0.422484
    26  H   -0.001069
    27  H    0.018374
    28  C    0.422499
    29  H   -0.015514
    30  H   -0.001205
    31  C   -0.022940
    32  C    0.032033
    33  C   -0.021595
    34  C   -0.021643
    35  C   -0.056765
    36  C   -0.056719
    37  C    0.186337
    38  N   -0.211972
    39  H   -0.022027
    40  F   -0.134730
    41  F   -0.124337
    42  F   -0.134068
    43  F   -0.124173
    44  F   -0.134220
    45  F   -0.134869
    46  H   -0.052307
    47  H   -0.056424
    48  H   -0.056427
    49  H   -0.052329
    50  C    0.158398
    51  C    0.158421
    52  H    0.010422
    53  H    0.010132
    54  H    0.014294
    55  H    0.010201
    56  H    0.010355
    57  H    0.014299
 Sum of Mulliken charges =   0.00000

 Dipole moment (field-independent basis, Debye):
    X=             -2.4181    Y=             -0.0239    Z=             -0.4271  Tot=              2.4556
 Quadrupole moment (field-independent basis, Debye-Ang):
   XX=           -160.7971   YY=           -221.6334   ZZ=           -248.6272
   XY=              0.1870   XZ=             -1.3376   YZ=             -0.9410

  Exact polarizability:1169.831   1.004 763.212   1.950  -3.208 246.249
 Approx polarizability:1669.606   1.5411100.457   6.342  -5.299 339.068

 Normal termination of Gaussian 09 at Sat Feb  4 02:23:15 2023.
