 Gaussian 16, Revision C.01,
 Gaussian 16:  EM64L-G16RevC.01  3-Jul-2019

 ----------------------------------------------------------------------
 #p BMK/gen gfinput pseudo=read scf=maxcycle=200 Polar=(DCSHG) CPHF=RdF
 req scrf=(iefpcm,read,solvent=n,n-DiMethylFormamide)
 ----------------------------------------------------------------------

 ------------------------------
 Primeira Hiperpolarizabilidade
 ------------------------------
 Symbolic Z-matrix:
 Charge =  0 Multiplicity = 1

                         Standard orientation:
 ---------------------------------------------------------------------
 Center     Atomic      Atomic             Coordinates (Angstroms)
 Number     Number       Type             X           Y           Z
 ---------------------------------------------------------------------
      1         78           0       -1.008098   -0.002554    0.023564
      2          6           0        1.040778    0.006667    0.073725
      3          7           0       -1.351872   -2.030588    0.021851
      4          7           0       -1.371945    2.022246    0.008714
      5          6           0       -0.428755    2.975399    0.046602
      6          6           0       -0.398749   -2.973631    0.063676
      7          6           0       -2.709059    2.370497   -0.042286
      8          6           0       -2.685437   -2.392870   -0.022148
      9          6           0       -3.612802   -1.258328   -0.063032
     10          6           0       -3.625038    1.226485   -0.074159
     11          6           0       -5.026887    1.184638   -0.123314
     12          6           0       -3.072336    3.724957   -0.058798
     13          6           0       -2.092344    4.709726   -0.020417
     14          6           0       -0.744979    4.330839    0.035451
     15          6           0       -5.014989   -1.230646   -0.112194
     16          6           0       -5.723602   -0.026574   -0.142658
     17          6           0       -3.034925   -3.751150   -0.020208
     18          6           0       -2.044755   -4.725434    0.024916
     19          1           0       -4.086756   -4.028898   -0.051962
     20          6           0       -0.700943   -4.332187    0.066180
     21          6           0       -2.958548   -0.012536   -0.045884
     22          9           0       -5.721231   -2.369921   -0.130392
     23          9           0       -5.744306    2.316719   -0.152261
     24          1           0        0.628075   -2.608296    0.098527
     25          6           0        0.398456   -5.362280    0.086817
     26          1           0       -2.317869   -5.782506    0.030833
     27          1           0        0.601877    2.621014    0.083278
     28          6           0        0.341059    5.372771    0.108014
     29          1           0       -4.126636    3.991341   -0.102923
     30          1           0       -2.375743    5.763900   -0.037457
     31          6           0        2.277388    0.010047    0.060642
     32          6           0        3.707803    0.013889    0.028194
     33          6           0        4.447523    1.218101   -0.023999
     34          6           0        4.455580   -1.186484    0.034584
     35          6           0        5.837091    1.229508   -0.071927
     36          6           0        5.845235   -1.190853   -0.012570
     37          6           0        6.585491    0.021156   -0.070201
     38          7           0        7.961809    0.024529   -0.122795
     39          1           0       -6.813007   -0.032125   -0.180343
     40          9           0        0.164122    6.329015   -0.821111
     41          9           0        1.561974    4.845788   -0.078463
     42          9           0        0.351159    5.992134    1.303574
     43          9           0        1.600000   -4.815854    0.333542
     44          9           0        0.487574   -6.010889   -1.089708
     45          9           0        0.175966   -6.297350    1.027787
     46          1           0        3.910527    2.170366   -0.029839
     47          1           0        6.346824    2.191499   -0.112978
     48          1           0        6.361574   -2.150201   -0.005956
     49          1           0        3.925014   -2.141478    0.075718
     50          6           0        8.685382    1.280513   -0.185956
     51          6           0        8.693844   -1.228146   -0.124189
     52          1           0        8.491668    1.917745    0.696229
     53          1           0        8.422404    1.868758   -1.084316
     54          1           0        9.762669    1.077961   -0.222194
     55          1           0        8.432484   -1.862719   -0.990876
     56          1           0        8.506737   -1.821220    0.789689
     57          1           0        9.769630   -1.020470   -0.173730
 ---------------------------------------------------------------------

 SCF Done:  E(RBMK) =  -2156.21367258     A.U. after   16 cycles

 The electronic state is 1-A.
 Alpha  occ. eigenvalues --  -25.19542 -25.19538 -25.19077 -25.19064 -25.18857
 Alpha  occ. eigenvalues --  -25.18849 -25.18415 -25.18412 -14.74832 -14.74830
 Alpha  occ. eigenvalues --  -14.68121 -10.75196 -10.75195 -10.60143 -10.60142
 Alpha  occ. eigenvalues --  -10.57494 -10.57492 -10.56527 -10.56517 -10.53652
 Alpha  occ. eigenvalues --  -10.53648 -10.53349 -10.53347 -10.52606 -10.52133
 Alpha  occ. eigenvalues --  -10.52130 -10.51085 -10.51084 -10.50711 -10.50562
 Alpha  occ. eigenvalues --  -10.50554 -10.49236 -10.48949 -10.48265 -10.48264
 Alpha  occ. eigenvalues --  -10.47479 -10.47478 -10.44673 -10.44046  -4.04870
 Alpha  occ. eigenvalues --   -2.25040  -2.24149  -2.20839  -1.42024  -1.42022
 Alpha  occ. eigenvalues --   -1.34011  -1.33960  -1.32671  -1.32669  -1.32137
 Alpha  occ. eigenvalues --   -1.32136  -1.07461  -1.07022  -1.02094  -0.96074
 Alpha  occ. eigenvalues --   -0.92453  -0.92378  -0.91447  -0.89866  -0.88580
 Alpha  occ. eigenvalues --   -0.84040  -0.84037  -0.82626  -0.80996  -0.79140
 Alpha  occ. eigenvalues --   -0.78611  -0.77701  -0.76254  -0.74448  -0.74242
 Alpha  occ. eigenvalues --   -0.73321  -0.72835  -0.71213  -0.69685  -0.68993
 Alpha  occ. eigenvalues --   -0.67271  -0.67161  -0.67155  -0.66977  -0.66552
 Alpha  occ. eigenvalues --   -0.66049  -0.65550  -0.64070  -0.63300  -0.61795
 Alpha  occ. eigenvalues --   -0.61126  -0.59324  -0.58855  -0.57949  -0.57537
 Alpha  occ. eigenvalues --   -0.56624  -0.55404  -0.55140  -0.55039  -0.55022
 Alpha  occ. eigenvalues --   -0.54800  -0.54789  -0.53832  -0.53247  -0.53226
 Alpha  occ. eigenvalues --   -0.53177  -0.52794  -0.51673  -0.51566  -0.51499
 Alpha  occ. eigenvalues --   -0.51448  -0.50805  -0.50558  -0.50234  -0.50220
 Alpha  occ. eigenvalues --   -0.50215  -0.49959  -0.49208  -0.48639  -0.48630
 Alpha  occ. eigenvalues --   -0.48339  -0.46912  -0.46511  -0.46132  -0.45615
 Alpha  occ. eigenvalues --   -0.45503  -0.44707  -0.44212  -0.43825  -0.43489
 Alpha  occ. eigenvalues --   -0.43281  -0.43178  -0.42425  -0.41960  -0.41707
 Alpha  occ. eigenvalues --   -0.40710  -0.38975  -0.37727  -0.37465  -0.37111
 Alpha  occ. eigenvalues --   -0.36207  -0.35275  -0.34948  -0.33516  -0.32832
 Alpha  occ. eigenvalues --   -0.30180  -0.29237  -0.29164  -0.27923  -0.27692
 Alpha  occ. eigenvalues --   -0.27224  -0.26120  -0.20840
 Alpha virt. eigenvalues --   -0.07259  -0.06832  -0.03180  -0.02867   0.00030
 Alpha virt. eigenvalues --    0.01954   0.02303   0.03940   0.04711   0.05485
 Alpha virt. eigenvalues --    0.07023   0.07333   0.09797   0.10695   0.11218

 Mulliken charges:
               1
     1  Pt   0.941358
     2  C   -0.557423
     3  N   -0.429814
     4  N   -0.429584
     5  C    0.144513
     6  C    0.144906
     7  C    0.194483
     8  C    0.194700
     9  C    0.032422
    10  C    0.032454
    11  C    0.253583
    12  C   -0.091135
    13  C    0.056773
    14  C   -0.133694
    15  C    0.253458
    16  C   -0.204500
    17  C   -0.091147
    18  C    0.056624
    19  H    0.074665
    20  C   -0.133587
    21  C   -0.421657
    22  F   -0.201325
    23  F   -0.201369
    24  H    0.087230
    25  C    0.605123
    26  H    0.090329
    27  H    0.087546
    28  C    0.605076
    29  H    0.074693
    30  H    0.090196
    31  C   -0.094022
    32  C    0.011281
    33  C   -0.071930
    34  C   -0.072112
    35  C   -0.131872
    36  C   -0.131820
    37  C    0.235742
    38  N   -0.386272
    39  H    0.072559
    40  F   -0.192407
    41  F   -0.183909
    42  F   -0.192012
    43  F   -0.183815
    44  F   -0.192151
    45  F   -0.192549
    46  H    0.035336
    47  H    0.020072
    48  H    0.020080
    49  H    0.035414
    50  C    0.044679
    51  C    0.044841
    52  H    0.059935
    53  H    0.059728
    54  H    0.070365
    55  H    0.059699
    56  H    0.059885
    57  H    0.070356
 Sum of Mulliken charges =  -0.00000

 Dipole moment (field-independent basis, Debye):
    X=             -3.6262    Y=             -0.0273    Z=             -0.4323  Tot=              3.6520
 Quadrupole moment (field-independent basis, Debye-Ang):
   XX=           -165.0655   YY=           -218.5334   ZZ=           -251.8650
   XY=              0.1594   XZ=             -1.3356   YZ=             -1.1109

  Exact polarizability:     826.331       0.352     641.956       2.467      -2.868     239.802
 Approx polarizability:     744.296       0.329     600.241       3.653      -2.877     258.595

 Normal termination of Gaussian 16 at Fri May  5 17:41:34 2023.
