 Gaussian 09, Revision D.01,
 Gaussian 09:  EM64L-G09RevD.01 24-Apr-2013

 ----------------------------------------------------------------------
 #p BP86/gen gfinput pseudo=read Integral(Grid=UltraFine,Acc2E=12) scf=
 maxcycle=200 Polar=(DCSHG) CPHF=RdFreq scrf=(iefpcm,read,solvent=n,n-D
 iMethylFormamide)
 ----------------------------------------------------------------------

 ------------------------------
 Primeira Hiperpolarizabilidade
 ------------------------------
 Symbolic Z-matrix:
 Charge =  0 Multiplicity = 1

                         Standard orientation:
 ---------------------------------------------------------------------
 Center     Atomic      Atomic             Coordinates (Angstroms)
 Number     Number       Type             X           Y           Z
 ---------------------------------------------------------------------
      1         78           0       -1.008098   -0.002554    0.023564
      2          6           0        1.040778    0.006667    0.073725
      3          7           0       -1.351872   -2.030588    0.021851
      4          7           0       -1.371945    2.022246    0.008714
      5          6           0       -0.428755    2.975399    0.046602
      6          6           0       -0.398749   -2.973631    0.063676
      7          6           0       -2.709059    2.370497   -0.042286
      8          6           0       -2.685437   -2.392870   -0.022148
      9          6           0       -3.612802   -1.258328   -0.063032
     10          6           0       -3.625038    1.226485   -0.074159
     11          6           0       -5.026887    1.184638   -0.123314
     12          6           0       -3.072336    3.724957   -0.058798
     13          6           0       -2.092344    4.709726   -0.020417
     14          6           0       -0.744979    4.330839    0.035451
     15          6           0       -5.014989   -1.230646   -0.112194
     16          6           0       -5.723602   -0.026574   -0.142658
     17          6           0       -3.034925   -3.751150   -0.020208
     18          6           0       -2.044755   -4.725434    0.024916
     19          1           0       -4.086756   -4.028898   -0.051962
     20          6           0       -0.700943   -4.332187    0.066180
     21          6           0       -2.958548   -0.012536   -0.045884
     22          9           0       -5.721231   -2.369921   -0.130392
     23          9           0       -5.744306    2.316719   -0.152261
     24          1           0        0.628075   -2.608296    0.098527
     25          6           0        0.398456   -5.362280    0.086817
     26          1           0       -2.317869   -5.782506    0.030833
     27          1           0        0.601877    2.621014    0.083278
     28          6           0        0.341059    5.372771    0.108014
     29          1           0       -4.126636    3.991341   -0.102923
     30          1           0       -2.375743    5.763900   -0.037457
     31          6           0        2.277388    0.010047    0.060642
     32          6           0        3.707803    0.013889    0.028194
     33          6           0        4.447523    1.218101   -0.023999
     34          6           0        4.455580   -1.186484    0.034584
     35          6           0        5.837091    1.229508   -0.071927
     36          6           0        5.845235   -1.190853   -0.012570
     37          6           0        6.585491    0.021156   -0.070201
     38          7           0        7.961809    0.024529   -0.122795
     39          1           0       -6.813007   -0.032125   -0.180343
     40          9           0        0.164122    6.329015   -0.821111
     41          9           0        1.561974    4.845788   -0.078463
     42          9           0        0.351159    5.992134    1.303574
     43          9           0        1.600000   -4.815854    0.333542
     44          9           0        0.487574   -6.010889   -1.089708
     45          9           0        0.175966   -6.297350    1.027787
     46          1           0        3.910527    2.170366   -0.029839
     47          1           0        6.346824    2.191499   -0.112978
     48          1           0        6.361574   -2.150201   -0.005956
     49          1           0        3.925014   -2.141478    0.075718
     50          6           0        8.685382    1.280513   -0.185956
     51          6           0        8.693844   -1.228146   -0.124189
     52          1           0        8.491668    1.917745    0.696229
     53          1           0        8.422404    1.868758   -1.084316
     54          1           0        9.762669    1.077961   -0.222194
     55          1           0        8.432484   -1.862719   -0.990876
     56          1           0        8.506737   -1.821220    0.789689
     57          1           0        9.769630   -1.020470   -0.173730
 ---------------------------------------------------------------------

 SCF Done:  E(RB-P86) =  -2158.03443369     A.U. after   16 cycles

 The electronic state is 1-A.
 Alpha  occ. eigenvalues --  -24.33126 -24.33121 -24.32700 -24.32699 -24.32697
 Alpha  occ. eigenvalues --  -24.32690 -24.32507 -24.32499 -14.09809 -14.09807
 Alpha  occ. eigenvalues --  -14.04349 -10.16120 -10.16119 -10.02588 -10.02586
 Alpha  occ. eigenvalues --   -9.99747  -9.99744  -9.98698  -9.98690  -9.96252
 Alpha  occ. eigenvalues --   -9.96249  -9.96225  -9.96225  -9.95587  -9.95216
 Alpha  occ. eigenvalues --   -9.95212  -9.94501  -9.94494  -9.94357  -9.94356
 Alpha  occ. eigenvalues --   -9.93802  -9.93139  -9.92531  -9.91703  -9.91701
 Alpha  occ. eigenvalues --   -9.91184  -9.91183  -9.88616  -9.88104  -3.79542
 Alpha  occ. eigenvalues --   -2.06163  -2.05765  -2.02537  -1.20659  -1.20658
 Alpha  occ. eigenvalues --   -1.13610  -1.13562  -1.11783  -1.11782  -1.11283
 Alpha  occ. eigenvalues --   -1.11282  -0.91255  -0.90886  -0.86871  -0.80916
 Alpha  occ. eigenvalues --   -0.77474  -0.77416  -0.76808  -0.75364  -0.74192
 Alpha  occ. eigenvalues --   -0.70061  -0.69968  -0.69132  -0.67575  -0.65466
 Alpha  occ. eigenvalues --   -0.64981  -0.64879  -0.63514  -0.61777  -0.61030
 Alpha  occ. eigenvalues --   -0.60653  -0.59977  -0.59221  -0.57333  -0.56866
 Alpha  occ. eigenvalues --   -0.54532  -0.54471  -0.54082  -0.54077  -0.54052
 Alpha  occ. eigenvalues --   -0.54051  -0.53661  -0.52619  -0.52211  -0.50350
 Alpha  occ. eigenvalues --   -0.49882  -0.48533  -0.48214  -0.47552  -0.46780
 Alpha  occ. eigenvalues --   -0.45494  -0.44462  -0.44055  -0.43999  -0.43255
 Alpha  occ. eigenvalues --   -0.43009  -0.42962  -0.42551  -0.41791  -0.41723
 Alpha  occ. eigenvalues --   -0.41657  -0.41374  -0.41341  -0.41285  -0.41133
 Alpha  occ. eigenvalues --   -0.41114  -0.40166  -0.40130  -0.39698  -0.39267
 Alpha  occ. eigenvalues --   -0.38420  -0.37912  -0.37864  -0.37552  -0.37477
 Alpha  occ. eigenvalues --   -0.37409  -0.36209  -0.36094  -0.36038  -0.35554
 Alpha  occ. eigenvalues --   -0.35533  -0.35491  -0.35214  -0.34719  -0.34425
 Alpha  occ. eigenvalues --   -0.34212  -0.33874  -0.33635  -0.33502  -0.33393
 Alpha  occ. eigenvalues --   -0.31971  -0.31269  -0.30326  -0.29963  -0.29812
 Alpha  occ. eigenvalues --   -0.28582  -0.27954  -0.26693  -0.26258  -0.25404
 Alpha  occ. eigenvalues --   -0.23646  -0.23160  -0.23149  -0.21853  -0.21535
 Alpha  occ. eigenvalues --   -0.20476  -0.20267  -0.16296
 Alpha virt. eigenvalues --   -0.11896  -0.11341  -0.08816  -0.08510  -0.05341
 Alpha virt. eigenvalues --   -0.04860  -0.03972  -0.03492  -0.02590   0.01058
 Alpha virt. eigenvalues --    0.02380   0.02409   0.03024   0.03963   0.04092

 Mulliken charges:
               1
     1  Pt   0.689974
     2  C   -0.502086
     3  N   -0.293664
     4  N   -0.293658
     5  C    0.126464
     6  C    0.126531
     7  C    0.143584
     8  C    0.143641
     9  C    0.047347
    10  C    0.047485
    11  C    0.220487
    12  C   -0.054738
    13  C    0.080940
    14  C   -0.132937
    15  C    0.220446
    16  C   -0.164858
    17  C   -0.054651
    18  C    0.080845
    19  H    0.032097
    20  C   -0.132835
    21  C   -0.402645
    22  F   -0.145317
    23  F   -0.145330
    24  H    0.054685
    25  C    0.467735
    26  H    0.045209
    27  H    0.054856
    28  C    0.467764
    29  H    0.032074
    30  H    0.045077
    31  C   -0.046525
    32  C   -0.010412
    33  C   -0.041955
    34  C   -0.042045
    35  C   -0.088286
    36  C   -0.088236
    37  C    0.182442
    38  N   -0.270694
    39  H    0.030195
    40  F   -0.141064
    41  F   -0.131884
    42  F   -0.140444
    43  F   -0.131745
    44  F   -0.140577
    45  F   -0.141196
    46  H   -0.002793
    47  H   -0.010603
    48  H   -0.010611
    49  H   -0.002788
    50  C    0.065743
    51  C    0.065764
    52  H    0.047562
    53  H    0.047305
    54  H    0.051725
    55  H    0.047352
    56  H    0.047516
    57  H    0.051731
 Sum of Mulliken charges =   0.00000

 Dipole moment (field-independent basis, Debye):
    X=             -2.1772    Y=             -0.0232    Z=             -0.4408  Tot=              2.2215
 Quadrupole moment (field-independent basis, Debye-Ang):
   XX=           -153.6874   YY=           -217.8424   ZZ=           -249.3761
   XY=              0.1963   XZ=             -1.3423   YZ=             -0.9824

  Exact polarizability:1190.978   1.071 764.213   1.755  -3.160 249.454
 Approx polarizability:1704.600   1.6591100.138   6.082  -5.242 336.682

 Normal termination of Gaussian 09 at Sat Feb  4 02:53:18 2023.
