 Gaussian 16, Revision C.01,
 Gaussian 16:  EM64L-G16RevC.01  3-Jul-2019

 ----------------------------------------------------------------------
 #p CAM-B3LYP/gen gfinput pseudo=read Integral(Grid=UltraFine,Acc2E=12)
  scf=maxcycle=200 Polar=(DCSHG) CPHF=RdFreq scrf=(iefpcm,read,solvent=
 n,n-DiMethylFormamide)
 ----------------------------------------------------------------------

 ------------------------------
 Primeira Hiperpolarizabilidade
 ------------------------------
 Symbolic Z-matrix:
 Charge =  0 Multiplicity = 1

                         Standard orientation:
 ---------------------------------------------------------------------
 Center     Atomic      Atomic             Coordinates (Angstroms)
 Number     Number       Type             X           Y           Z
 ---------------------------------------------------------------------
      1         78           0       -1.008098   -0.002554    0.023564
      2          6           0        1.040778    0.006667    0.073725
      3          7           0       -1.351872   -2.030588    0.021851
      4          7           0       -1.371945    2.022246    0.008714
      5          6           0       -0.428755    2.975399    0.046602
      6          6           0       -0.398749   -2.973631    0.063676
      7          6           0       -2.709059    2.370497   -0.042286
      8          6           0       -2.685437   -2.392870   -0.022148
      9          6           0       -3.612802   -1.258328   -0.063032
     10          6           0       -3.625038    1.226485   -0.074159
     11          6           0       -5.026887    1.184638   -0.123314
     12          6           0       -3.072336    3.724957   -0.058798
     13          6           0       -2.092344    4.709726   -0.020417
     14          6           0       -0.744979    4.330839    0.035451
     15          6           0       -5.014989   -1.230646   -0.112194
     16          6           0       -5.723602   -0.026574   -0.142658
     17          6           0       -3.034925   -3.751150   -0.020208
     18          6           0       -2.044755   -4.725434    0.024916
     19          1           0       -4.086756   -4.028898   -0.051962
     20          6           0       -0.700943   -4.332187    0.066180
     21          6           0       -2.958548   -0.012536   -0.045884
     22          9           0       -5.721231   -2.369921   -0.130392
     23          9           0       -5.744306    2.316719   -0.152261
     24          1           0        0.628075   -2.608296    0.098527
     25          6           0        0.398456   -5.362280    0.086817
     26          1           0       -2.317869   -5.782506    0.030833
     27          1           0        0.601877    2.621014    0.083278
     28          6           0        0.341059    5.372771    0.108014
     29          1           0       -4.126636    3.991341   -0.102923
     30          1           0       -2.375743    5.763900   -0.037457
     31          6           0        2.277388    0.010047    0.060642
     32          6           0        3.707803    0.013889    0.028194
     33          6           0        4.447523    1.218101   -0.023999
     34          6           0        4.455580   -1.186484    0.034584
     35          6           0        5.837091    1.229508   -0.071927
     36          6           0        5.845235   -1.190853   -0.012570
     37          6           0        6.585491    0.021156   -0.070201
     38          7           0        7.961809    0.024529   -0.122795
     39          1           0       -6.813007   -0.032125   -0.180343
     40          9           0        0.164122    6.329015   -0.821111
     41          9           0        1.561974    4.845788   -0.078463
     42          9           0        0.351159    5.992134    1.303574
     43          9           0        1.600000   -4.815854    0.333542
     44          9           0        0.487574   -6.010889   -1.089708
     45          9           0        0.175966   -6.297350    1.027787
     46          1           0        3.910527    2.170366   -0.029839
     47          1           0        6.346824    2.191499   -0.112978
     48          1           0        6.361574   -2.150201   -0.005956
     49          1           0        3.925014   -2.141478    0.075718
     50          6           0        8.685382    1.280513   -0.185956
     51          6           0        8.693844   -1.228146   -0.124189
     52          1           0        8.491668    1.917745    0.696229
     53          1           0        8.422404    1.868758   -1.084316
     54          1           0        9.762669    1.077961   -0.222194
     55          1           0        8.432484   -1.862719   -0.990876
     56          1           0        8.506737   -1.821220    0.789689
     57          1           0        9.769630   -1.020470   -0.173730
 ---------------------------------------------------------------------

 SCF Done:  E(RCAM-B3LYP) =  -2157.00789136     A.U. after   17 cycles

 The electronic state is 1-A.
 Alpha  occ. eigenvalues --  -24.80948 -24.80943 -24.80462 -24.80450 -24.80237
 Alpha  occ. eigenvalues --  -24.80228 -24.79900 -24.79897 -14.48516 -14.48514
 Alpha  occ. eigenvalues --  -14.41751 -10.52646 -10.52645 -10.38171 -10.38169
 Alpha  occ. eigenvalues --  -10.35372 -10.35369 -10.34209 -10.34200 -10.31798
 Alpha  occ. eigenvalues --  -10.31793 -10.31294 -10.31292 -10.30461 -10.30108
 Alpha  occ. eigenvalues --  -10.30103 -10.29002 -10.29000 -10.28910 -10.28902
 Alpha  occ. eigenvalues --  -10.28556 -10.27697 -10.26906 -10.26391 -10.26390
 Alpha  occ. eigenvalues --  -10.25559 -10.25558 -10.22622 -10.21976  -4.00819
 Alpha  occ. eigenvalues --   -2.23501  -2.23168  -2.19801  -1.39279  -1.39278
 Alpha  occ. eigenvalues --   -1.31442  -1.31387  -1.29993  -1.29991  -1.29451
 Alpha  occ. eigenvalues --   -1.29450  -1.07598  -1.07189  -1.02296  -0.96787
 Alpha  occ. eigenvalues --   -0.93222  -0.93134  -0.92249  -0.90798  -0.89539
 Alpha  occ. eigenvalues --   -0.85027  -0.84987  -0.83741  -0.82152  -0.79914
 Alpha  occ. eigenvalues --   -0.79376  -0.79004  -0.77523  -0.75737  -0.75116
 Alpha  occ. eigenvalues --   -0.74567  -0.73894  -0.72662  -0.70857  -0.70280
 Alpha  occ. eigenvalues --   -0.68032  -0.67916  -0.67696  -0.67688  -0.67532
 Alpha  occ. eigenvalues --   -0.67129  -0.67067  -0.65359  -0.64866  -0.63192
 Alpha  occ. eigenvalues --   -0.62608  -0.60630  -0.60576  -0.59766  -0.59209
 Alpha  occ. eigenvalues --   -0.57489  -0.56940  -0.56101  -0.56063  -0.55778
 Alpha  occ. eigenvalues --   -0.55380  -0.55341  -0.55219  -0.55064  -0.54797
 Alpha  occ. eigenvalues --   -0.54788  -0.54314  -0.53300  -0.53083  -0.53061
 Alpha  occ. eigenvalues --   -0.52979  -0.52321  -0.51911  -0.51156  -0.51142
 Alpha  occ. eigenvalues --   -0.51123  -0.50953  -0.50928  -0.50463  -0.49162
 Alpha  occ. eigenvalues --   -0.49157  -0.49075  -0.48506  -0.47634  -0.47469
 Alpha  occ. eigenvalues --   -0.47315  -0.46790  -0.46246  -0.45811  -0.45349
 Alpha  occ. eigenvalues --   -0.45286  -0.45052  -0.44445  -0.44081  -0.43967
 Alpha  occ. eigenvalues --   -0.42264  -0.40812  -0.39894  -0.39369  -0.38945
 Alpha  occ. eigenvalues --   -0.38179  -0.36872  -0.36116  -0.35402  -0.34611
 Alpha  occ. eigenvalues --   -0.31700  -0.31190  -0.31122  -0.30296  -0.29615
 Alpha  occ. eigenvalues --   -0.28758  -0.28091  -0.22789
 Alpha virt. eigenvalues --   -0.05244  -0.04890  -0.01069  -0.00780   0.01864
 Alpha virt. eigenvalues --    0.04037   0.04280   0.04377   0.05778   0.06018
 Alpha virt. eigenvalues --    0.06589   0.06873   0.10500   0.11709   0.11931

 Mulliken charges:
               1
     1  Pt   0.726665
     2  C   -0.490942
     3  N   -0.323807
     4  N   -0.323780
     5  C    0.145416
     6  C    0.145495
     7  C    0.171806
     8  C    0.171854
     9  C    0.017754
    10  C    0.017885
    11  C    0.244386
    12  C   -0.053401
    13  C    0.102223
    14  C   -0.142671
    15  C    0.244338
    16  C   -0.156155
    17  C   -0.053319
    18  C    0.102082
    19  H    0.029586
    20  C   -0.142525
    21  C   -0.355399
    22  F   -0.179139
    23  F   -0.179154
    24  H    0.057395
    25  C    0.542058
    26  H    0.047145
    27  H    0.057527
    28  C    0.542090
    29  H    0.029570
    30  H    0.047027
    31  C   -0.075870
    32  C   -0.016911
    33  C   -0.022566
    34  C   -0.022629
    35  C   -0.097757
    36  C   -0.097709
    37  C    0.203478
    38  N   -0.311146
    39  H    0.024023
    40  F   -0.167961
    41  F   -0.158437
    42  F   -0.167431
    43  F   -0.158298
    44  F   -0.167562
    45  F   -0.168090
    46  H   -0.012161
    47  H   -0.015543
    48  H   -0.015547
    49  H   -0.012200
    50  C    0.112462
    51  C    0.112487
    52  H    0.030065
    53  H    0.029802
    54  H    0.036810
    55  H    0.029861
    56  H    0.030006
    57  H    0.036815
 Sum of Mulliken charges =  -0.00000

 Dipole moment (field-independent basis, Debye):
    X=             -4.3566    Y=             -0.0303    Z=             -0.4190  Tot=              4.3768
 Quadrupole moment (field-independent basis, Debye-Ang):
   XX=           -170.4213   YY=           -217.9750   ZZ=           -250.2673
   XY=              0.1406   XZ=             -1.2473   YZ=             -1.0639

  Exact polarizability:     790.729       0.249     639.223       2.767      -2.892     240.191
 Approx polarizability:     640.045       0.210     540.397       3.402      -2.546     245.428

 1\1\GINC-NQTCM08\SP\RCAM-B3LYP\Gen\C28H17F8N3Pt1\NQTCM\22-Jul-2024\0\\
 #p CAM-B3LYP/gen gfinput pseudo=read Integral(Grid=UltraFine,Acc2E=12)
  scf=maxcycle=200 Polar=(DCSHG) CPHF=RdFreq scrf=(iefpcm,read,solvent=
 n,n-DiMethylFormamide)\\Primeira Hiperpolarizabilidade\\0,1\Pt,0,1.008
 098,-0.002554,-0.023564\C,0,-1.040778,0.006667,-0.073725\N,0,1.351872,
 -2.030588,-0.021851\N,0,1.371945,2.022246,-0.008714\C,0,0.428756,2.975
 399,-0.046602\C,0,0.398749,-2.973631,-0.063676\C,0,2.709059,2.370496,0
 .042286\C,0,2.685437,-2.392871,0.022148\C,0,3.612802,-1.258329,0.06303

 Normal termination of Gaussian 16 at Mon Jul 22 17:40:01 2024.
