 Gaussian 09, Revision D.01,
 Gaussian 09:  EM64L-G09RevD.01 24-Apr-2013

 ----------------------------------------------------------------------
 #p B3LYP/gen gfinput pseudo=read Integral(Grid=UltraFine,Acc2E=12) scf
 =maxcycle=200 Polar=(DCSHG) CPHF=RdFreq scrf=(iefpcm,read,solvent=n,n-
 DiMethylFormamide)
 ----------------------------------------------------------------------

 ------------------------------
 Primeira Hiperpolarizabilidade
 ------------------------------
 Symbolic Z-matrix:
 Charge =  0 Multiplicity = 1

                         Standard orientation:
 ---------------------------------------------------------------------
 Center     Atomic      Atomic             Coordinates (Angstroms)
 Number     Number       Type             X           Y           Z
 ---------------------------------------------------------------------
      1         78           0       -1.008098   -0.002554    0.023564
      2          6           0        1.040778    0.006667    0.073725
      3          7           0       -1.351872   -2.030588    0.021851
      4          7           0       -1.371945    2.022246    0.008714
      5          6           0       -0.428755    2.975399    0.046602
      6          6           0       -0.398749   -2.973631    0.063676
      7          6           0       -2.709059    2.370497   -0.042286
      8          6           0       -2.685437   -2.392870   -0.022148
      9          6           0       -3.612802   -1.258328   -0.063032
     10          6           0       -3.625038    1.226485   -0.074159
     11          6           0       -5.026887    1.184638   -0.123314
     12          6           0       -3.072336    3.724957   -0.058798
     13          6           0       -2.092344    4.709726   -0.020417
     14          6           0       -0.744979    4.330839    0.035451
     15          6           0       -5.014989   -1.230646   -0.112194
     16          6           0       -5.723602   -0.026574   -0.142658
     17          6           0       -3.034925   -3.751150   -0.020208
     18          6           0       -2.044755   -4.725434    0.024916
     19          1           0       -4.086756   -4.028898   -0.051962
     20          6           0       -0.700943   -4.332187    0.066180
     21          6           0       -2.958548   -0.012536   -0.045884
     22          9           0       -5.721231   -2.369921   -0.130392
     23          9           0       -5.744306    2.316719   -0.152261
     24          1           0        0.628075   -2.608296    0.098527
     25          6           0        0.398456   -5.362280    0.086817
     26          1           0       -2.317869   -5.782506    0.030833
     27          1           0        0.601877    2.621014    0.083278
     28          6           0        0.341059    5.372771    0.108014
     29          1           0       -4.126636    3.991341   -0.102923
     30          1           0       -2.375743    5.763900   -0.037457
     31          6           0        2.277388    0.010047    0.060642
     32          6           0        3.707803    0.013889    0.028194
     33          6           0        4.447523    1.218101   -0.023999
     34          6           0        4.455580   -1.186484    0.034584
     35          6           0        5.837091    1.229508   -0.071927
     36          6           0        5.845235   -1.190853   -0.012570
     37          6           0        6.585491    0.021156   -0.070201
     38          7           0        7.961809    0.024529   -0.122795
     39          1           0       -6.813007   -0.032125   -0.180343
     40          9           0        0.164122    6.329015   -0.821111
     41          9           0        1.561974    4.845788   -0.078463
     42          9           0        0.351159    5.992134    1.303574
     43          9           0        1.600000   -4.815854    0.333542
     44          9           0        0.487574   -6.010889   -1.089708
     45          9           0        0.175966   -6.297350    1.027787
     46          1           0        3.910527    2.170366   -0.029839
     47          1           0        6.346824    2.191499   -0.112978
     48          1           0        6.361574   -2.150201   -0.005956
     49          1           0        3.925014   -2.141478    0.075718
     50          6           0        8.685382    1.280513   -0.185956
     51          6           0        8.693844   -1.228146   -0.124189
     52          1           0        8.491668    1.917745    0.696229
     53          1           0        8.422404    1.868758   -1.084316
     54          1           0        9.762669    1.077961   -0.222194
     55          1           0        8.432484   -1.862719   -0.990876
     56          1           0        8.506737   -1.821220    0.789689
     57          1           0        9.769630   -1.020470   -0.173730
 ---------------------------------------------------------------------

 SCF Done:  E(RB3LYP) =  -2158.27208312     A.U. after   15 cycles

 The electronic state is 1-A.
 Alpha  occ. eigenvalues --  -24.73409 -24.73404 -24.72948 -24.72936 -24.72739
 Alpha  occ. eigenvalues --  -24.72730 -24.72495 -24.72493 -14.40737 -14.40733
 Alpha  occ. eigenvalues --  -14.34852 -10.44980 -10.44979 -10.30492 -10.30490
 Alpha  occ. eigenvalues --  -10.27565 -10.27562 -10.26539 -10.26530 -10.24114
 Alpha  occ. eigenvalues --  -10.24109 -10.23804 -10.23801 -10.22996 -10.22710
 Alpha  occ. eigenvalues --  -10.22706 -10.21812 -10.21805 -10.21677 -10.21676
 Alpha  occ. eigenvalues --  -10.21268 -10.20220 -10.19688 -10.19016 -10.19014
 Alpha  occ. eigenvalues --  -10.18332 -10.18331 -10.15538 -10.14694  -3.88979
 Alpha  occ. eigenvalues --   -2.20760  -2.20453  -2.17689  -1.31047  -1.31046
 Alpha  occ. eigenvalues --   -1.23443  -1.23393  -1.22007  -1.22005  -1.21486
 Alpha  occ. eigenvalues --   -1.21484  -0.99141  -0.98770  -0.94282  -0.88394
 Alpha  occ. eigenvalues --   -0.84905  -0.84827  -0.84000  -0.82561  -0.81332
 Alpha  occ. eigenvalues --   -0.76979  -0.76963  -0.75800  -0.74185  -0.72160
 Alpha  occ. eigenvalues --   -0.71628  -0.71268  -0.69870  -0.67951  -0.67500
 Alpha  occ. eigenvalues --   -0.66897  -0.66315  -0.65207  -0.63347  -0.62827
 Alpha  occ. eigenvalues --   -0.60663  -0.60478  -0.60381  -0.60371  -0.60119
 Alpha  occ. eigenvalues --   -0.59706  -0.59668  -0.58094  -0.57676  -0.55907
 Alpha  occ. eigenvalues --   -0.55422  -0.53640  -0.53455  -0.52743  -0.52160
 Alpha  occ. eigenvalues --   -0.50201  -0.50097  -0.48923  -0.48814  -0.48690
 Alpha  occ. eigenvalues --   -0.48499  -0.48160  -0.48105  -0.48045  -0.47867
 Alpha  occ. eigenvalues --   -0.47711  -0.47380  -0.46365  -0.46269  -0.45860
 Alpha  occ. eigenvalues --   -0.45764  -0.45340  -0.45074  -0.44414  -0.44070
 Alpha  occ. eigenvalues --   -0.44058  -0.43933  -0.43933  -0.43770  -0.42684
 Alpha  occ. eigenvalues --   -0.42096  -0.42091  -0.41955  -0.41050  -0.40874
 Alpha  occ. eigenvalues --   -0.40647  -0.40383  -0.39912  -0.39317  -0.39018
 Alpha  occ. eigenvalues --   -0.38587  -0.38500  -0.37854  -0.37773  -0.37586
 Alpha  occ. eigenvalues --   -0.35998  -0.34646  -0.33875  -0.33452  -0.33080
 Alpha  occ. eigenvalues --   -0.31966  -0.31028  -0.29778  -0.29722  -0.28631
 Alpha  occ. eigenvalues --   -0.26404  -0.25779  -0.25671  -0.24636  -0.24573
 Alpha  occ. eigenvalues --   -0.23142  -0.23046  -0.18265
 Alpha virt. eigenvalues --   -0.09404  -0.08975  -0.05838  -0.05509  -0.02482
 Alpha virt. eigenvalues --   -0.00974  -0.00771  -0.00473   0.00788   0.02613
 Alpha virt. eigenvalues --    0.03429   0.03811   0.05490   0.06290   0.06622

 Mulliken charges:
               1
     1  Pt  -0.406644
     2  C   -0.302636
     3  N   -0.172602
     4  N   -0.172726
     5  C    0.145187
     6  C    0.145264
     7  C    0.167598
     8  C    0.167668
     9  C   -0.040273
    10  C   -0.040211
    11  C    0.243171
    12  C   -0.044171
    13  C    0.097135
    14  C   -0.131970
    15  C    0.243149
    16  C   -0.158347
    17  C   -0.044119
    18  C    0.096983
    19  H    0.017868
    20  C   -0.131850
    21  C    0.248659
    22  F   -0.184634
    23  F   -0.184649
    24  H    0.057759
    25  C    0.559380
    26  H    0.033557
    27  H    0.057906
    28  C    0.559406
    29  H    0.017852
    30  H    0.033441
    31  C    0.163529
    32  C   -0.052172
    33  C   -0.017736
    34  C   -0.017796
    35  C   -0.087653
    36  C   -0.087613
    37  C    0.209109
    38  N   -0.312197
    39  H    0.013957
    40  F   -0.173841
    41  F   -0.164649
    42  F   -0.173220
    43  F   -0.164518
    44  F   -0.173358
    45  F   -0.173968
    46  H   -0.022248
    47  H   -0.024563
    48  H   -0.024568
    49  H   -0.022283
    50  C    0.131537
    51  C    0.131560
    52  H    0.025722
    53  H    0.025449
    54  H    0.031595
    55  H    0.025510
    56  H    0.025662
    57  H    0.031600
 Sum of Mulliken charges =   0.00000

 Dipole moment (field-independent basis, Debye):
    X=             -3.6926    Y=             -0.0282    Z=             -0.4288  Tot=              3.7175
 Quadrupole moment (field-independent basis, Debye-Ang):
   XX=           -165.7961   YY=           -219.7181   ZZ=           -249.5544
   XY=              0.1629   XZ=             -1.2977   YZ=             -1.0150

  Exact polarizability: 918.696   0.459 691.089   2.503  -3.019 248.024
 Approx polarizability: 998.940   0.516 777.344   4.949  -3.756 299.863

 Normal termination of Gaussian 09 at Sat Apr  8 00:38:43 2023.
