 Gaussian 09, Revision D.01,
 Gaussian 09:  EM64L-G09RevD.01 24-Apr-2013

 ----------------------------------------------------------------------
 #p B3LYP/gen gfinput pseudo=read Integral(Grid=UltraFine,Acc2E=12) scf
 =maxcycle=200 Polar=(DCSHG) CPHF=RdFreq scrf=(iefpcm,read,solvent=n,n-
 DiMethylFormamide)
 ----------------------------------------------------------------------

 ------------------------------
 Primeira Hiperpolarizabilidade
 ------------------------------
 Symbolic Z-matrix:
 Charge =  0 Multiplicity = 1

                         Standard orientation:
 ---------------------------------------------------------------------
 Center     Atomic      Atomic             Coordinates (Angstroms)
 Number     Number       Type             X           Y           Z
 ---------------------------------------------------------------------
      1         78           0       -1.008098   -0.002554    0.023564
      2          6           0        1.040778    0.006667    0.073725
      3          7           0       -1.351872   -2.030588    0.021851
      4          7           0       -1.371945    2.022246    0.008714
      5          6           0       -0.428755    2.975399    0.046602
      6          6           0       -0.398749   -2.973631    0.063676
      7          6           0       -2.709059    2.370497   -0.042286
      8          6           0       -2.685437   -2.392870   -0.022148
      9          6           0       -3.612802   -1.258328   -0.063032
     10          6           0       -3.625038    1.226485   -0.074159
     11          6           0       -5.026887    1.184638   -0.123314
     12          6           0       -3.072336    3.724957   -0.058798
     13          6           0       -2.092344    4.709726   -0.020417
     14          6           0       -0.744979    4.330839    0.035451
     15          6           0       -5.014989   -1.230646   -0.112194
     16          6           0       -5.723602   -0.026574   -0.142658
     17          6           0       -3.034925   -3.751150   -0.020208
     18          6           0       -2.044755   -4.725434    0.024916
     19          1           0       -4.086756   -4.028898   -0.051962
     20          6           0       -0.700943   -4.332187    0.066180
     21          6           0       -2.958548   -0.012536   -0.045884
     22          9           0       -5.721231   -2.369921   -0.130392
     23          9           0       -5.744306    2.316719   -0.152261
     24          1           0        0.628075   -2.608296    0.098527
     25          6           0        0.398456   -5.362280    0.086817
     26          1           0       -2.317869   -5.782506    0.030833
     27          1           0        0.601877    2.621014    0.083278
     28          6           0        0.341059    5.372771    0.108014
     29          1           0       -4.126636    3.991341   -0.102923
     30          1           0       -2.375743    5.763900   -0.037457
     31          6           0        2.277388    0.010047    0.060642
     32          6           0        3.707803    0.013889    0.028194
     33          6           0        4.447523    1.218101   -0.023999
     34          6           0        4.455580   -1.186484    0.034584
     35          6           0        5.837091    1.229508   -0.071927
     36          6           0        5.845235   -1.190853   -0.012570
     37          6           0        6.585491    0.021156   -0.070201
     38          7           0        7.961809    0.024529   -0.122795
     39          1           0       -6.813007   -0.032125   -0.180343
     40          9           0        0.164122    6.329015   -0.821111
     41          9           0        1.561974    4.845788   -0.078463
     42          9           0        0.351159    5.992134    1.303574
     43          9           0        1.600000   -4.815854    0.333542
     44          9           0        0.487574   -6.010889   -1.089708
     45          9           0        0.175966   -6.297350    1.027787
     46          1           0        3.910527    2.170366   -0.029839
     47          1           0        6.346824    2.191499   -0.112978
     48          1           0        6.361574   -2.150201   -0.005956
     49          1           0        3.925014   -2.141478    0.075718
     50          6           0        8.685382    1.280513   -0.185956
     51          6           0        8.693844   -1.228146   -0.124189
     52          1           0        8.491668    1.917745    0.696229
     53          1           0        8.422404    1.868758   -1.084316
     54          1           0        9.762669    1.077961   -0.222194
     55          1           0        8.432484   -1.862719   -0.990876
     56          1           0        8.506737   -1.821220    0.789689
     57          1           0        9.769630   -1.020470   -0.173730
 ---------------------------------------------------------------------

 SCF Done:  E(RB3LYP) =  -2159.54325677     A.U. after   15 cycles

 The electronic state is 1-A.
 Alpha  occ. eigenvalues --  -24.74264 -24.74259 -24.73794 -24.73781 -24.73628
 Alpha  occ. eigenvalues --  -24.73627 -24.73548 -24.73538 -14.41266 -14.41264
 Alpha  occ. eigenvalues --  -14.35111 -10.44528 -10.44527 -10.30397 -10.30396
 Alpha  occ. eigenvalues --  -10.27567 -10.27565 -10.26434 -10.26425 -10.24006
 Alpha  occ. eigenvalues --  -10.24001 -10.23834 -10.23832 -10.23001 -10.22640
 Alpha  occ. eigenvalues --  -10.22636 -10.21711 -10.21709 -10.21705 -10.21702
 Alpha  occ. eigenvalues --  -10.21255 -10.20232 -10.19675 -10.18972 -10.18970
 Alpha  occ. eigenvalues --  -10.18327 -10.18326 -10.15482 -10.14720  -3.93387
 Alpha  occ. eigenvalues --   -2.16131  -2.15724  -2.12563  -1.32618  -1.32617
 Alpha  occ. eigenvalues --   -1.25538  -1.25490  -1.23881  -1.23880  -1.23350
 Alpha  occ. eigenvalues --   -1.23347  -0.99991  -0.99600  -0.95189  -0.89087
 Alpha  occ. eigenvalues --   -0.85573  -0.85522  -0.84709  -0.83281  -0.82000
 Alpha  occ. eigenvalues --   -0.77627  -0.77619  -0.76519  -0.74885  -0.72761
 Alpha  occ. eigenvalues --   -0.72224  -0.71938  -0.70603  -0.68331  -0.67820
 Alpha  occ. eigenvalues --   -0.67292  -0.66489  -0.65763  -0.63648  -0.62985
 Alpha  occ. eigenvalues --   -0.60300  -0.60189  -0.60098  -0.59968  -0.59966
 Alpha  occ. eigenvalues --   -0.59844  -0.59378  -0.58304  -0.57763  -0.55631
 Alpha  occ. eigenvalues --   -0.55415  -0.53383  -0.53334  -0.52369  -0.51816
 Alpha  occ. eigenvalues --   -0.50217  -0.49799  -0.48979  -0.48527  -0.48400
 Alpha  occ. eigenvalues --   -0.48228  -0.47871  -0.47605  -0.47562  -0.47522
 Alpha  occ. eigenvalues --   -0.47226  -0.46992  -0.46174  -0.46006  -0.45493
 Alpha  occ. eigenvalues --   -0.45387  -0.45211  -0.44895  -0.44462  -0.43628
 Alpha  occ. eigenvalues --   -0.43477  -0.43457  -0.43343  -0.43289  -0.42338
 Alpha  occ. eigenvalues --   -0.41764  -0.41471  -0.41465  -0.40641  -0.40556
 Alpha  occ. eigenvalues --   -0.40277  -0.40249  -0.39660  -0.38937  -0.38681
 Alpha  occ. eigenvalues --   -0.38221  -0.38149  -0.37677  -0.37445  -0.37337
 Alpha  occ. eigenvalues --   -0.35775  -0.34343  -0.33572  -0.33113  -0.32746
 Alpha  occ. eigenvalues --   -0.31703  -0.30718  -0.29752  -0.29457  -0.28657
 Alpha  occ. eigenvalues --   -0.26176  -0.25461  -0.25404  -0.24545  -0.24300
 Alpha  occ. eigenvalues --   -0.22925  -0.22769  -0.17956
 Alpha virt. eigenvalues --   -0.09122  -0.08649  -0.05550  -0.05196  -0.02227
 Alpha virt. eigenvalues --   -0.01056  -0.00538  -0.00168   0.01111   0.02716
 Alpha virt. eigenvalues --    0.03384   0.03796   0.05963   0.06820   0.07131

 Mulliken charges:
               1
     1  Pt   0.900894
     2  C   -0.635737
     3  N   -0.421722
     4  N   -0.421658
     5  C    0.226003
     6  C    0.226178
     7  C    0.202549
     8  C    0.202629
     9  C    0.102710
    10  C    0.103046
    11  C    0.090554
    12  C    0.002742
    13  C    0.156335
    14  C   -0.207090
    15  C    0.090511
    16  C    0.027807
    17  C    0.002681
    18  C    0.156451
    19  H    0.004186
    20  C   -0.207141
    21  C   -0.513686
    22  F   -0.145434
    23  F   -0.145454
    24  H    0.037150
    25  C    0.526073
    26  H    0.010818
    27  H    0.037201
    28  C    0.526075
    29  H    0.004170
    30  H    0.010765
    31  C    0.088567
    32  C   -0.127012
    33  C    0.008247
    34  C    0.008129
    35  C   -0.032483
    36  C   -0.032475
    37  C    0.167631
    38  N   -0.321755
    39  H    0.017268
    40  F   -0.161085
    41  F   -0.154168
    42  F   -0.163206
    43  F   -0.154099
    44  F   -0.163182
    45  F   -0.161311
    46  H   -0.044620
    47  H   -0.026834
    48  H   -0.026844
    49  H   -0.044624
    50  C    0.083523
    51  C    0.083539
    52  H    0.033536
    53  H    0.033195
    54  H    0.036860
    55  H    0.033298
    56  H    0.033438
    57  H    0.036864
 Sum of Mulliken charges =   0.00000

 Dipole moment (field-independent basis, Debye):
    X=             -3.6680    Y=             -0.0277    Z=             -0.4223  Tot=              3.6923
 Quadrupole moment (field-independent basis, Debye-Ang):
   XX=           -163.6015   YY=           -217.4868   ZZ=           -248.7383
   XY=              0.1637   XZ=             -1.2461   YZ=             -1.0668

  Exact polarizability: 934.718   0.465 700.780   2.849  -3.114 223.892
 Approx polarizability:1014.590   0.523 788.167   5.358  -3.948 278.329

 Normal termination of Gaussian 09 at Thu May 18 00:55:43 2023.
