 Gaussian 09, Revision D.01,
 Gaussian 09:  EM64L-G09RevD.01 24-Apr-2013

 ----------------------------------------------------------------------
 #p B3LYP/gen gfinput pseudo=read Integral(Grid=UltraFine,Acc2E=12) scf
 =maxcycle=200 Polar=(DCSHG) CPHF=RdFreq scrf=(iefpcm,read,solvent=n,n-
 DiMethylFormamide)
 ----------------------------------------------------------------------

 ------------------------------
 Primeira Hiperpolarizabilidade
 ------------------------------
 Symbolic Z-matrix:
 Charge =  0 Multiplicity = 1

                         Standard orientation:
 ---------------------------------------------------------------------
 Center     Atomic      Atomic             Coordinates (Angstroms)
 Number     Number       Type             X           Y           Z
 ---------------------------------------------------------------------
      1         78           0       -1.008098   -0.002554    0.023564
      2          6           0        1.040778    0.006667    0.073725
      3          7           0       -1.351872   -2.030588    0.021851
      4          7           0       -1.371945    2.022246    0.008714
      5          6           0       -0.428755    2.975399    0.046602
      6          6           0       -0.398749   -2.973631    0.063676
      7          6           0       -2.709059    2.370497   -0.042286
      8          6           0       -2.685437   -2.392870   -0.022148
      9          6           0       -3.612802   -1.258328   -0.063032
     10          6           0       -3.625038    1.226485   -0.074159
     11          6           0       -5.026887    1.184638   -0.123314
     12          6           0       -3.072336    3.724957   -0.058798
     13          6           0       -2.092344    4.709726   -0.020417
     14          6           0       -0.744979    4.330839    0.035451
     15          6           0       -5.014989   -1.230646   -0.112194
     16          6           0       -5.723602   -0.026574   -0.142658
     17          6           0       -3.034925   -3.751150   -0.020208
     18          6           0       -2.044755   -4.725434    0.024916
     19          1           0       -4.086756   -4.028898   -0.051962
     20          6           0       -0.700943   -4.332187    0.066180
     21          6           0       -2.958548   -0.012536   -0.045884
     22          9           0       -5.721231   -2.369921   -0.130392
     23          9           0       -5.744306    2.316719   -0.152261
     24          1           0        0.628075   -2.608296    0.098527
     25          6           0        0.398456   -5.362280    0.086817
     26          1           0       -2.317869   -5.782506    0.030833
     27          1           0        0.601877    2.621014    0.083278
     28          6           0        0.341059    5.372771    0.108014
     29          1           0       -4.126636    3.991341   -0.102923
     30          1           0       -2.375743    5.763900   -0.037457
     31          6           0        2.277388    0.010047    0.060642
     32          6           0        3.707803    0.013889    0.028194
     33          6           0        4.447523    1.218101   -0.023999
     34          6           0        4.455580   -1.186484    0.034584
     35          6           0        5.837091    1.229508   -0.071927
     36          6           0        5.845235   -1.190853   -0.012570
     37          6           0        6.585491    0.021156   -0.070201
     38          7           0        7.961809    0.024529   -0.122795
     39          1           0       -6.813007   -0.032125   -0.180343
     40          9           0        0.164122    6.329015   -0.821111
     41          9           0        1.561974    4.845788   -0.078463
     42          9           0        0.351159    5.992134    1.303574
     43          9           0        1.600000   -4.815854    0.333542
     44          9           0        0.487574   -6.010889   -1.089708
     45          9           0        0.175966   -6.297350    1.027787
     46          1           0        3.910527    2.170366   -0.029839
     47          1           0        6.346824    2.191499   -0.112978
     48          1           0        6.361574   -2.150201   -0.005956
     49          1           0        3.925014   -2.141478    0.075718
     50          6           0        8.685382    1.280513   -0.185956
     51          6           0        8.693844   -1.228146   -0.124189
     52          1           0        8.491668    1.917745    0.696229
     53          1           0        8.422404    1.868758   -1.084316
     54          1           0        9.762669    1.077961   -0.222194
     55          1           0        8.432484   -1.862719   -0.990876
     56          1           0        8.506737   -1.821220    0.789689
     57          1           0        9.769630   -1.020470   -0.173730
 ---------------------------------------------------------------------

 SCF Done:  E(RB3LYP) =  -2158.26482848     A.U. after   15 cycles

 The electronic state is 1-A.
 Alpha  occ. eigenvalues --  -24.73400 -24.73395 -24.72942 -24.72930 -24.72729
 Alpha  occ. eigenvalues --  -24.72720 -24.72497 -24.72495 -14.40842 -14.40840
 Alpha  occ. eigenvalues --  -14.34840 -10.44974 -10.44973 -10.30497 -10.30495
 Alpha  occ. eigenvalues --  -10.27585 -10.27583 -10.26545 -10.26536 -10.24108
 Alpha  occ. eigenvalues --  -10.24104 -10.23801 -10.23799 -10.22981 -10.22713
 Alpha  occ. eigenvalues --  -10.22709 -10.21808 -10.21800 -10.21692 -10.21690
 Alpha  occ. eigenvalues --  -10.21270 -10.20124 -10.19642 -10.18997 -10.18996
 Alpha  occ. eigenvalues --  -10.18322 -10.18321 -10.15458 -10.14552  -3.89151
 Alpha  occ. eigenvalues --   -2.21072  -2.20718  -2.17517  -1.31040  -1.31039
 Alpha  occ. eigenvalues --   -1.23447  -1.23398  -1.22000  -1.21998  -1.21479
 Alpha  occ. eigenvalues --   -1.21477  -0.99167  -0.98791  -0.94272  -0.88408
 Alpha  occ. eigenvalues --   -0.84911  -0.84834  -0.83986  -0.82570  -0.81336
 Alpha  occ. eigenvalues --   -0.76994  -0.76967  -0.75777  -0.74175  -0.72165
 Alpha  occ. eigenvalues --   -0.71631  -0.71261  -0.69828  -0.67967  -0.67503
 Alpha  occ. eigenvalues --   -0.66904  -0.66316  -0.65184  -0.63365  -0.62835
 Alpha  occ. eigenvalues --   -0.60659  -0.60476  -0.60375  -0.60365  -0.60128
 Alpha  occ. eigenvalues --   -0.59697  -0.59667  -0.58106  -0.57669  -0.55916
 Alpha  occ. eigenvalues --   -0.55434  -0.53644  -0.53442  -0.52753  -0.52168
 Alpha  occ. eigenvalues --   -0.50189  -0.50102  -0.48959  -0.48819  -0.48693
 Alpha  occ. eigenvalues --   -0.48489  -0.48167  -0.48099  -0.48056  -0.47869
 Alpha  occ. eigenvalues --   -0.47709  -0.47378  -0.46359  -0.46273  -0.45867
 Alpha  occ. eigenvalues --   -0.45772  -0.45374  -0.45104  -0.44406  -0.44068
 Alpha  occ. eigenvalues --   -0.44057  -0.43946  -0.43927  -0.43812  -0.42673
 Alpha  occ. eigenvalues --   -0.42089  -0.42084  -0.41945  -0.41058  -0.40890
 Alpha  occ. eigenvalues --   -0.40659  -0.40379  -0.39911  -0.39329  -0.39033
 Alpha  occ. eigenvalues --   -0.38593  -0.38510  -0.37849  -0.37764  -0.37572
 Alpha  occ. eigenvalues --   -0.36082  -0.34647  -0.33864  -0.33455  -0.33081
 Alpha  occ. eigenvalues --   -0.31944  -0.31023  -0.29928  -0.29714  -0.28718
 Alpha  occ. eigenvalues --   -0.26402  -0.25760  -0.25661  -0.24570  -0.24508
 Alpha  occ. eigenvalues --   -0.23169  -0.23025  -0.18234
 Alpha virt. eigenvalues --   -0.09393  -0.08971  -0.05834  -0.05487  -0.02450
 Alpha virt. eigenvalues --   -0.01034  -0.00760  -0.00425   0.00800   0.03459
 Alpha virt. eigenvalues --    0.04929   0.05512   0.06241   0.07076   0.07361

 Mulliken charges:
               1
     1  Pt  -0.035192
     2  C   -0.409465
     3  N   -0.245123
     4  N   -0.245231
     5  C    0.140358
     6  C    0.140447
     7  C    0.171842
     8  C    0.171873
     9  C   -0.019635
    10  C   -0.019559
    11  C    0.256011
    12  C   -0.043393
    13  C    0.099408
    14  C   -0.132843
    15  C    0.256003
    16  C   -0.157059
    17  C   -0.043338
    18  C    0.099259
    19  H    0.019120
    20  C   -0.132733
    21  C    0.067933
    22  F   -0.184523
    23  F   -0.184538
    24  H    0.050685
    25  C    0.560029
    26  H    0.034193
    27  H    0.050816
    28  C    0.560053
    29  H    0.019105
    30  H    0.034079
    31  C    0.134873
    32  C   -0.018309
    33  C   -0.020572
    34  C   -0.020649
    35  C   -0.086568
    36  C   -0.086526
    37  C    0.207614
    38  N   -0.312224
    39  H    0.014280
    40  F   -0.173990
    41  F   -0.164805
    42  F   -0.173512
    43  F   -0.164676
    44  F   -0.173640
    45  F   -0.174122
    46  H   -0.022333
    47  H   -0.024664
    48  H   -0.024669
    49  H   -0.022354
    50  C    0.131571
    51  C    0.131594
    52  H    0.025642
    53  H    0.025369
    54  H    0.031536
    55  H    0.025429
    56  H    0.025582
    57  H    0.031541
 Sum of Mulliken charges =   0.00000

 Dipole moment (field-independent basis, Debye):
    X=             -3.7087    Y=             -0.0281    Z=             -0.4264  Tot=              3.7332
 Quadrupole moment (field-independent basis, Debye-Ang):
   XX=           -166.0681   YY=           -219.7411   ZZ=           -249.4579
   XY=              0.1624   XZ=             -1.2894   YZ=             -1.0198

  Exact polarizability: 920.226   0.472 689.484   2.593  -3.036 242.888
 Approx polarizability: 999.630   0.530 774.910   5.052  -3.785 293.874

 Normal termination of Gaussian 09 at Fri Apr  7 22:44:14 2023.
