 Gaussian 09, Revision D.01,
 Gaussian 09:  EM64L-G09RevD.01 24-Apr-2013

 ----------------------------------------------------------------------
 #p B3LYP/gen gfinput pseudo=read Integral(Grid=UltraFine,Acc2E=12) scf
 =maxcycle=200 Polar=(DCSHG) CPHF=RdFreq scrf=(iefpcm,read,solvent=n,n-
 DiMethylFormamide)
 ----------------------------------------------------------------------

 ------------------------------
 Primeira Hiperpolarizabilidade
 ------------------------------
 Symbolic Z-matrix:
 Charge =  0 Multiplicity = 1

                         Standard orientation:
 ---------------------------------------------------------------------
 Center     Atomic      Atomic             Coordinates (Angstroms)
 Number     Number       Type             X           Y           Z
 ---------------------------------------------------------------------
      1         78           0       -1.008098   -0.002554    0.023564
      2          6           0        1.040778    0.006667    0.073725
      3          7           0       -1.351872   -2.030588    0.021851
      4          7           0       -1.371945    2.022246    0.008714
      5          6           0       -0.428755    2.975399    0.046602
      6          6           0       -0.398749   -2.973631    0.063676
      7          6           0       -2.709059    2.370497   -0.042286
      8          6           0       -2.685437   -2.392870   -0.022148
      9          6           0       -3.612802   -1.258328   -0.063032
     10          6           0       -3.625038    1.226485   -0.074159
     11          6           0       -5.026887    1.184638   -0.123314
     12          6           0       -3.072336    3.724957   -0.058798
     13          6           0       -2.092344    4.709726   -0.020417
     14          6           0       -0.744979    4.330839    0.035451
     15          6           0       -5.014989   -1.230646   -0.112194
     16          6           0       -5.723602   -0.026574   -0.142658
     17          6           0       -3.034925   -3.751150   -0.020208
     18          6           0       -2.044755   -4.725434    0.024916
     19          1           0       -4.086756   -4.028898   -0.051962
     20          6           0       -0.700943   -4.332187    0.066180
     21          6           0       -2.958548   -0.012536   -0.045884
     22          9           0       -5.721231   -2.369921   -0.130392
     23          9           0       -5.744306    2.316719   -0.152261
     24          1           0        0.628075   -2.608296    0.098527
     25          6           0        0.398456   -5.362280    0.086817
     26          1           0       -2.317869   -5.782506    0.030833
     27          1           0        0.601877    2.621014    0.083278
     28          6           0        0.341059    5.372771    0.108014
     29          1           0       -4.126636    3.991341   -0.102923
     30          1           0       -2.375743    5.763900   -0.037457
     31          6           0        2.277388    0.010047    0.060642
     32          6           0        3.707803    0.013889    0.028194
     33          6           0        4.447523    1.218101   -0.023999
     34          6           0        4.455580   -1.186484    0.034584
     35          6           0        5.837091    1.229508   -0.071927
     36          6           0        5.845235   -1.190853   -0.012570
     37          6           0        6.585491    0.021156   -0.070201
     38          7           0        7.961809    0.024529   -0.122795
     39          1           0       -6.813007   -0.032125   -0.180343
     40          9           0        0.164122    6.329015   -0.821111
     41          9           0        1.561974    4.845788   -0.078463
     42          9           0        0.351159    5.992134    1.303574
     43          9           0        1.600000   -4.815854    0.333542
     44          9           0        0.487574   -6.010889   -1.089708
     45          9           0        0.175966   -6.297350    1.027787
     46          1           0        3.910527    2.170366   -0.029839
     47          1           0        6.346824    2.191499   -0.112978
     48          1           0        6.361574   -2.150201   -0.005956
     49          1           0        3.925014   -2.141478    0.075718
     50          6           0        8.685382    1.280513   -0.185956
     51          6           0        8.693844   -1.228146   -0.124189
     52          1           0        8.491668    1.917745    0.696229
     53          1           0        8.422404    1.868758   -1.084316
     54          1           0        9.762669    1.077961   -0.222194
     55          1           0        8.432484   -1.862719   -0.990876
     56          1           0        8.506737   -1.821220    0.789689
     57          1           0        9.769630   -1.020470   -0.173730
 ---------------------------------------------------------------------

 SCF Done:  E(RB3LYP) =  -2160.16014267     A.U. after   15 cycles

 The electronic state is 1-A.
 Alpha  occ. eigenvalues --  -24.73172 -24.73169 -24.72829 -24.72821 -24.72662
 Alpha  occ. eigenvalues --  -24.72655 -24.72169 -24.72169 -14.40127 -14.40126
 Alpha  occ. eigenvalues --  -14.34300 -10.44455 -10.44455 -10.29655 -10.29655
 Alpha  occ. eigenvalues --  -10.26701 -10.26699 -10.25376 -10.25367 -10.23138
 Alpha  occ. eigenvalues --  -10.23137 -10.23004 -10.22999 -10.22207 -10.21606
 Alpha  occ. eigenvalues --  -10.21602 -10.20931 -10.20929 -10.20444 -10.20443
 Alpha  occ. eigenvalues --  -10.20288 -10.19699 -10.18897 -10.18029 -10.18026
 Alpha  occ. eigenvalues --  -10.17400 -10.17399 -10.14465 -10.13900  -3.93468
 Alpha  occ. eigenvalues --   -2.16138  -2.15775  -2.12702  -1.33144  -1.33143
 Alpha  occ. eigenvalues --   -1.25764  -1.25720  -1.24467  -1.24466  -1.24040
 Alpha  occ. eigenvalues --   -1.24038  -0.99909  -0.99521  -0.95318  -0.89099
 Alpha  occ. eigenvalues --   -0.85671  -0.85608  -0.84878  -0.83287  -0.82033
 Alpha  occ. eigenvalues --   -0.77789  -0.77765  -0.76668  -0.75050  -0.73149
 Alpha  occ. eigenvalues --   -0.72665  -0.72058  -0.70737  -0.68453  -0.68277
 Alpha  occ. eigenvalues --   -0.67443  -0.66891  -0.65947  -0.63906  -0.63269
 Alpha  occ. eigenvalues --   -0.61095  -0.60975  -0.60969  -0.60897  -0.60393
 Alpha  occ. eigenvalues --   -0.60336  -0.59907  -0.58589  -0.58128  -0.55965
 Alpha  occ. eigenvalues --   -0.55712  -0.53818  -0.53678  -0.52656  -0.52133
 Alpha  occ. eigenvalues --   -0.50493  -0.50435  -0.49336  -0.49253  -0.49075
 Alpha  occ. eigenvalues --   -0.48729  -0.48695  -0.48566  -0.48305  -0.48078
 Alpha  occ. eigenvalues --   -0.48027  -0.47701  -0.46541  -0.46421  -0.45961
 Alpha  occ. eigenvalues --   -0.45884  -0.45685  -0.45229  -0.44766  -0.44557
 Alpha  occ. eigenvalues --   -0.44554  -0.44447  -0.44431  -0.43852  -0.42771
 Alpha  occ. eigenvalues --   -0.42765  -0.42674  -0.42090  -0.41182  -0.41111
 Alpha  occ. eigenvalues --   -0.40746  -0.40568  -0.40018  -0.39409  -0.39012
 Alpha  occ. eigenvalues --   -0.38683  -0.38616  -0.37950  -0.37823  -0.37740
 Alpha  occ. eigenvalues --   -0.35963  -0.34627  -0.33933  -0.33411  -0.33042
 Alpha  occ. eigenvalues --   -0.32064  -0.31084  -0.29905  -0.29714  -0.28892
 Alpha  occ. eigenvalues --   -0.26383  -0.25849  -0.25838  -0.24642  -0.24573
 Alpha  occ. eigenvalues --   -0.23254  -0.23101  -0.18406
 Alpha virt. eigenvalues --   -0.09512  -0.09072  -0.06036  -0.05618  -0.02695
 Alpha virt. eigenvalues --   -0.01302  -0.01293  -0.00741   0.00633   0.02515
 Alpha virt. eigenvalues --    0.02649   0.03149   0.03772   0.05291   0.05817

 Mulliken charges:
               1
     1  Pt   1.133931
     2  C   -0.557497
     3  N   -0.365013
     4  N   -0.365092
     5  C   -0.030710
     6  C   -0.030674
     7  C    0.197210
     8  C    0.196891
     9  C   -0.168820
    10  C   -0.169051
    11  C    0.377113
    12  C   -0.120748
    13  C   -0.116503
    14  C   -0.062257
    15  C    0.377083
    16  C   -0.260613
    17  C   -0.120689
    18  C   -0.116442
    19  H    0.137797
    20  C   -0.062541
    21  C   -0.374740
    22  F   -0.175649
    23  F   -0.175677
    24  H    0.186046
    25  C    0.580743
    26  H    0.145680
    27  H    0.185705
    28  C    0.580518
    29  H    0.137844
    30  H    0.145721
    31  C   -0.393795
    32  C    0.120959
    33  C   -0.148985
    34  C   -0.148991
    35  C   -0.180987
    36  C   -0.180895
    37  C    0.126741
    38  N   -0.065303
    39  H    0.146014
    40  F   -0.175772
    41  F   -0.167019
    42  F   -0.177195
    43  F   -0.166987
    44  F   -0.177228
    45  F   -0.176079
    46  H    0.122995
    47  H    0.115320
    48  H    0.115327
    49  H    0.122897
    50  C   -0.203050
    51  C   -0.203039
    52  H    0.092681
    53  H    0.092388
    54  H    0.107681
    55  H    0.092391
    56  H    0.092677
    57  H    0.107690
 Sum of Mulliken charges =   0.00000

 Dipole moment (field-independent basis, Debye):
    X=             -3.8859    Y=             -0.0290    Z=             -0.4364  Tot=              3.9104
 Quadrupole moment (field-independent basis, Debye-Ang):
   XX=           -167.7172   YY=           -222.7935   ZZ=           -250.9290
   XY=              0.1669   XZ=             -1.3559   YZ=             -1.0222

  Exact polarizability: 971.077   0.454 743.844   3.079  -2.888 277.564
 Approx polarizability:1041.455   0.509 823.373   5.319  -3.619 341.396

 Normal termination of Gaussian 09 at Thu May 18 12:37:43 2023.
