 Gaussian 09, Revision D.01,
 Gaussian 09:  EM64L-G09RevD.01 24-Apr-2013

 ----------------------------------------------------------------------
 #p B3LYP/gen gfinput pseudo=read Integral(Grid=UltraFine,Acc2E=12) scf
 =maxcycle=200 Polar=(DCSHG) CPHF=RdFreq scrf=(iefpcm,read,solvent=n,n-
 DiMethylFormamide)
 ----------------------------------------------------------------------

 ------------------------------
 Primeira Hiperpolarizabilidade
 ------------------------------
 Symbolic Z-matrix:
 Charge =  0 Multiplicity = 1

                         Standard orientation:
 ---------------------------------------------------------------------
 Center     Atomic      Atomic             Coordinates (Angstroms)
 Number     Number       Type             X           Y           Z
 ---------------------------------------------------------------------
      1         78           0       -1.008098   -0.002554    0.023564
      2          6           0        1.040778    0.006667    0.073725
      3          7           0       -1.351872   -2.030588    0.021851
      4          7           0       -1.371945    2.022246    0.008714
      5          6           0       -0.428755    2.975399    0.046602
      6          6           0       -0.398749   -2.973631    0.063676
      7          6           0       -2.709059    2.370497   -0.042286
      8          6           0       -2.685437   -2.392870   -0.022148
      9          6           0       -3.612802   -1.258328   -0.063032
     10          6           0       -3.625038    1.226485   -0.074159
     11          6           0       -5.026887    1.184638   -0.123314
     12          6           0       -3.072336    3.724957   -0.058798
     13          6           0       -2.092344    4.709726   -0.020417
     14          6           0       -0.744979    4.330839    0.035451
     15          6           0       -5.014989   -1.230646   -0.112194
     16          6           0       -5.723602   -0.026574   -0.142658
     17          6           0       -3.034925   -3.751150   -0.020208
     18          6           0       -2.044755   -4.725434    0.024916
     19          1           0       -4.086756   -4.028898   -0.051962
     20          6           0       -0.700943   -4.332187    0.066180
     21          6           0       -2.958548   -0.012536   -0.045884
     22          9           0       -5.721231   -2.369921   -0.130392
     23          9           0       -5.744306    2.316719   -0.152261
     24          1           0        0.628075   -2.608296    0.098527
     25          6           0        0.398456   -5.362280    0.086817
     26          1           0       -2.317869   -5.782506    0.030833
     27          1           0        0.601877    2.621014    0.083278
     28          6           0        0.341059    5.372771    0.108014
     29          1           0       -4.126636    3.991341   -0.102923
     30          1           0       -2.375743    5.763900   -0.037457
     31          6           0        2.277388    0.010047    0.060642
     32          6           0        3.707803    0.013889    0.028194
     33          6           0        4.447523    1.218101   -0.023999
     34          6           0        4.455580   -1.186484    0.034584
     35          6           0        5.837091    1.229508   -0.071927
     36          6           0        5.845235   -1.190853   -0.012570
     37          6           0        6.585491    0.021156   -0.070201
     38          7           0        7.961809    0.024529   -0.122795
     39          1           0       -6.813007   -0.032125   -0.180343
     40          9           0        0.164122    6.329015   -0.821111
     41          9           0        1.561974    4.845788   -0.078463
     42          9           0        0.351159    5.992134    1.303574
     43          9           0        1.600000   -4.815854    0.333542
     44          9           0        0.487574   -6.010889   -1.089708
     45          9           0        0.175966   -6.297350    1.027787
     46          1           0        3.910527    2.170366   -0.029839
     47          1           0        6.346824    2.191499   -0.112978
     48          1           0        6.361574   -2.150201   -0.005956
     49          1           0        3.925014   -2.141478    0.075718
     50          6           0        8.685382    1.280513   -0.185956
     51          6           0        8.693844   -1.228146   -0.124189
     52          1           0        8.491668    1.917745    0.696229
     53          1           0        8.422404    1.868758   -1.084316
     54          1           0        9.762669    1.077961   -0.222194
     55          1           0        8.432484   -1.862719   -0.990876
     56          1           0        8.506737   -1.821220    0.789689
     57          1           0        9.769630   -1.020470   -0.173730
 ---------------------------------------------------------------------

 SCF Done:  E(RB3LYP) =  -2160.23735928     A.U. after   16 cycles

 The electronic state is 1-A.
 Alpha  occ. eigenvalues --  -24.73167 -24.73165 -24.72881 -24.72875 -24.72749
 Alpha  occ. eigenvalues --  -24.72743 -24.72086 -24.72085 -14.39949 -14.39948
 Alpha  occ. eigenvalues --  -14.34045 -10.44378 -10.44377 -10.29461 -10.29461
 Alpha  occ. eigenvalues --  -10.26489 -10.26487 -10.25203 -10.25194 -10.22936
 Alpha  occ. eigenvalues --  -10.22934 -10.22821 -10.22816 -10.22011 -10.21423
 Alpha  occ. eigenvalues --  -10.21419 -10.20726 -10.20725 -10.20257 -10.20255
 Alpha  occ. eigenvalues --  -10.20102 -10.19510 -10.18722 -10.17854 -10.17852
 Alpha  occ. eigenvalues --  -10.17236 -10.17234 -10.14386 -10.13844  -3.93516
 Alpha  occ. eigenvalues --   -2.16187  -2.15825  -2.12744  -1.33292  -1.33291
 Alpha  occ. eigenvalues --   -1.25784  -1.25741  -1.24590  -1.24588  -1.24198
 Alpha  occ. eigenvalues --   -1.24196  -0.99917  -0.99530  -0.95342  -0.89116
 Alpha  occ. eigenvalues --   -0.85720  -0.85653  -0.84923  -0.83310  -0.82063
 Alpha  occ. eigenvalues --   -0.77840  -0.77813  -0.76710  -0.75098  -0.73245
 Alpha  occ. eigenvalues --   -0.72776  -0.72092  -0.70784  -0.68509  -0.68395
 Alpha  occ. eigenvalues --   -0.67504  -0.67010  -0.65994  -0.63983  -0.63354
 Alpha  occ. eigenvalues --   -0.61303  -0.61226  -0.61223  -0.61100  -0.60538
 Alpha  occ. eigenvalues --   -0.60400  -0.60060  -0.58657  -0.58213  -0.56065
 Alpha  occ. eigenvalues --   -0.55805  -0.53927  -0.53764  -0.52758  -0.52233
 Alpha  occ. eigenvalues --   -0.50568  -0.50562  -0.49479  -0.49401  -0.49297
 Alpha  occ. eigenvalues --   -0.49002  -0.48972  -0.48645  -0.48528  -0.48174
 Alpha  occ. eigenvalues --   -0.48153  -0.47846  -0.46600  -0.46540  -0.46111
 Alpha  occ. eigenvalues --   -0.46041  -0.45798  -0.45350  -0.44857  -0.44778
 Alpha  occ. eigenvalues --   -0.44774  -0.44689  -0.44662  -0.43942  -0.43062
 Alpha  occ. eigenvalues --   -0.43056  -0.42758  -0.42177  -0.41362  -0.41234
 Alpha  occ. eigenvalues --   -0.40847  -0.40618  -0.40115  -0.39534  -0.39101
 Alpha  occ. eigenvalues --   -0.38810  -0.38713  -0.38017  -0.37913  -0.37829
 Alpha  occ. eigenvalues --   -0.36033  -0.34711  -0.34023  -0.33493  -0.33125
 Alpha  occ. eigenvalues --   -0.32144  -0.31172  -0.29969  -0.29786  -0.28967
 Alpha  occ. eigenvalues --   -0.26453  -0.25934  -0.25932  -0.24678  -0.24654
 Alpha  occ. eigenvalues --   -0.23334  -0.23175  -0.18496
 Alpha virt. eigenvalues --   -0.09612  -0.09190  -0.06176  -0.05744  -0.02826
 Alpha virt. eigenvalues --   -0.01486  -0.01393  -0.00911   0.00479   0.02268
 Alpha virt. eigenvalues --    0.02434   0.02952   0.03740   0.05196   0.05674

 Mulliken charges:
               1
     1  Pt   0.895500
     2  C   -0.290881
     3  N   -0.370834
     4  N   -0.370809
     5  C   -0.061623
     6  C   -0.061504
     7  C    0.410597
     8  C    0.410267
     9  C   -0.454256
    10  C   -0.454340
    11  C    0.353174
    12  C   -0.190633
    13  C   -0.133069
    14  C    0.053436
    15  C    0.353064
    16  C   -0.333904
    17  C   -0.190883
    18  C   -0.133387
    19  H    0.158238
    20  C    0.053284
    21  C    0.141319
    22  F   -0.208993
    23  F   -0.209019
    24  H    0.236524
    25  C    0.507594
    26  H    0.162045
    27  H    0.235442
    28  C    0.507337
    29  H    0.158244
    30  H    0.162113
    31  C   -0.294174
    32  C   -0.039626
    33  C   -0.231974
    34  C   -0.231535
    35  C   -0.242562
    36  C   -0.242500
    37  C    0.230098
    38  N   -0.086198
    39  H    0.149407
    40  F   -0.181980
    41  F   -0.180130
    42  F   -0.180675
    43  F   -0.180427
    44  F   -0.180787
    45  F   -0.181996
    46  H    0.132465
    47  H    0.135362
    48  H    0.135334
    49  H    0.132471
    50  C   -0.291092
    51  C   -0.291042
    52  H    0.129129
    53  H    0.129009
    54  H    0.135628
    55  H    0.128983
    56  H    0.129140
    57  H    0.135629
 Sum of Mulliken charges =   0.00000

 Dipole moment (field-independent basis, Debye):
    X=             -3.9217    Y=             -0.0291    Z=             -0.4431  Tot=              3.9467
 Quadrupole moment (field-independent basis, Debye-Ang):
   XX=           -168.8242   YY=           -224.7194   ZZ=           -251.9824
   XY=              0.1677   XZ=             -1.3999   YZ=             -0.9906

  Exact polarizability: 977.976   0.459 752.027   3.125  -2.711 301.621
 Approx polarizability:1044.946   0.512 827.436   5.274  -3.397 361.229

 Normal termination of Gaussian 09 at Fri May 19 11:11:58 2023.
