 Gaussian 09, Revision D.01,
 Gaussian 09:  EM64L-G09RevD.01 24-Apr-2013

 ----------------------------------------------------------------------
 #p B3LYP/gen gfinput pseudo=read Integral(Grid=UltraFine,Acc2E=12) scf
 =maxcycle=200 Polar=(DCSHG) CPHF=RdFreq scrf=(iefpcm,read,solvent=n,n-
 DiMethylFormamide)
 ----------------------------------------------------------------------

 ------------------------------
 Primeira Hiperpolarizabilidade
 ------------------------------
 Symbolic Z-matrix:
 Charge =  0 Multiplicity = 1

                         Standard orientation:
 ---------------------------------------------------------------------
 Center     Atomic      Atomic             Coordinates (Angstroms)
 Number     Number       Type             X           Y           Z
 ---------------------------------------------------------------------
      1         78           0       -1.008098   -0.002554    0.023564
      2          6           0        1.040778    0.006667    0.073725
      3          7           0       -1.351872   -2.030588    0.021851
      4          7           0       -1.371945    2.022246    0.008714
      5          6           0       -0.428755    2.975399    0.046602
      6          6           0       -0.398749   -2.973631    0.063676
      7          6           0       -2.709059    2.370497   -0.042286
      8          6           0       -2.685437   -2.392870   -0.022148
      9          6           0       -3.612802   -1.258328   -0.063032
     10          6           0       -3.625038    1.226485   -0.074159
     11          6           0       -5.026887    1.184638   -0.123314
     12          6           0       -3.072336    3.724957   -0.058798
     13          6           0       -2.092344    4.709726   -0.020417
     14          6           0       -0.744979    4.330839    0.035451
     15          6           0       -5.014989   -1.230646   -0.112194
     16          6           0       -5.723602   -0.026574   -0.142658
     17          6           0       -3.034925   -3.751150   -0.020208
     18          6           0       -2.044755   -4.725434    0.024916
     19          1           0       -4.086756   -4.028898   -0.051962
     20          6           0       -0.700943   -4.332187    0.066180
     21          6           0       -2.958548   -0.012536   -0.045884
     22          9           0       -5.721231   -2.369921   -0.130392
     23          9           0       -5.744306    2.316719   -0.152261
     24          1           0        0.628075   -2.608296    0.098527
     25          6           0        0.398456   -5.362280    0.086817
     26          1           0       -2.317869   -5.782506    0.030833
     27          1           0        0.601877    2.621014    0.083278
     28          6           0        0.341059    5.372771    0.108014
     29          1           0       -4.126636    3.991341   -0.102923
     30          1           0       -2.375743    5.763900   -0.037457
     31          6           0        2.277388    0.010047    0.060642
     32          6           0        3.707803    0.013889    0.028194
     33          6           0        4.447523    1.218101   -0.023999
     34          6           0        4.455580   -1.186484    0.034584
     35          6           0        5.837091    1.229508   -0.071927
     36          6           0        5.845235   -1.190853   -0.012570
     37          6           0        6.585491    0.021156   -0.070201
     38          7           0        7.961809    0.024529   -0.122795
     39          1           0       -6.813007   -0.032125   -0.180343
     40          9           0        0.164122    6.329015   -0.821111
     41          9           0        1.561974    4.845788   -0.078463
     42          9           0        0.351159    5.992134    1.303574
     43          9           0        1.600000   -4.815854    0.333542
     44          9           0        0.487574   -6.010889   -1.089708
     45          9           0        0.175966   -6.297350    1.027787
     46          1           0        3.910527    2.170366   -0.029839
     47          1           0        6.346824    2.191499   -0.112978
     48          1           0        6.361574   -2.150201   -0.005956
     49          1           0        3.925014   -2.141478    0.075718
     50          6           0        8.685382    1.280513   -0.185956
     51          6           0        8.693844   -1.228146   -0.124189
     52          1           0        8.491668    1.917745    0.696229
     53          1           0        8.422404    1.868758   -1.084316
     54          1           0        9.762669    1.077961   -0.222194
     55          1           0        8.432484   -1.862719   -0.990876
     56          1           0        8.506737   -1.821220    0.789689
     57          1           0        9.769630   -1.020470   -0.173730
 ---------------------------------------------------------------------

 SCF Done:  E(RB3LYP) =  -2158.13484899     A.U. after   16 cycles

 The electronic state is 1-A.
 Alpha  occ. eigenvalues --  -24.73395 -24.73390 -24.72937 -24.72925 -24.72722
 Alpha  occ. eigenvalues --  -24.72713 -24.72495 -24.72492 -14.40819 -14.40813
 Alpha  occ. eigenvalues --  -14.34800 -10.44965 -10.44965 -10.30496 -10.30494
 Alpha  occ. eigenvalues --  -10.27595 -10.27592 -10.26543 -10.26534 -10.24111
 Alpha  occ. eigenvalues --  -10.24106 -10.23786 -10.23784 -10.22939 -10.22696
 Alpha  occ. eigenvalues --  -10.22692 -10.21793 -10.21786 -10.21690 -10.21689
 Alpha  occ. eigenvalues --  -10.21278 -10.20194 -10.19600 -10.18955 -10.18953
 Alpha  occ. eigenvalues --  -10.18291 -10.18290 -10.15309 -10.14433  -3.94600
 Alpha  occ. eigenvalues --   -2.19927  -2.19588  -2.16235  -1.31035  -1.31035
 Alpha  occ. eigenvalues --   -1.23447  -1.23398  -1.21995  -1.21994  -1.21474
 Alpha  occ. eigenvalues --   -1.21472  -0.99132  -0.98745  -0.94242  -0.88399
 Alpha  occ. eigenvalues --   -0.84897  -0.84826  -0.83946  -0.82559  -0.81326
 Alpha  occ. eigenvalues --   -0.76988  -0.76963  -0.75723  -0.74145  -0.72155
 Alpha  occ. eigenvalues --   -0.71620  -0.71239  -0.69731  -0.67961  -0.67497
 Alpha  occ. eigenvalues --   -0.66894  -0.66306  -0.65124  -0.63368  -0.62825
 Alpha  occ. eigenvalues --   -0.60654  -0.60470  -0.60370  -0.60360  -0.60129
 Alpha  occ. eigenvalues --   -0.59671  -0.59644  -0.58101  -0.57636  -0.55911
 Alpha  occ. eigenvalues --   -0.55435  -0.53642  -0.53405  -0.52744  -0.52162
 Alpha  occ. eigenvalues --   -0.50149  -0.50101  -0.48979  -0.48819  -0.48684
 Alpha  occ. eigenvalues --   -0.48461  -0.48172  -0.48094  -0.48058  -0.47863
 Alpha  occ. eigenvalues --   -0.47704  -0.47368  -0.46339  -0.46276  -0.45857
 Alpha  occ. eigenvalues --   -0.45750  -0.45404  -0.45050  -0.44384  -0.44060
 Alpha  occ. eigenvalues --   -0.44054  -0.43967  -0.43921  -0.43836  -0.42641
 Alpha  occ. eigenvalues --   -0.42085  -0.42079  -0.41916  -0.41049  -0.40888
 Alpha  occ. eigenvalues --   -0.40657  -0.40365  -0.39898  -0.39335  -0.39033
 Alpha  occ. eigenvalues --   -0.38592  -0.38517  -0.37832  -0.37734  -0.37537
 Alpha  occ. eigenvalues --   -0.36044  -0.34679  -0.33830  -0.33437  -0.33077
 Alpha  occ. eigenvalues --   -0.31966  -0.31007  -0.30022  -0.29811  -0.28305
 Alpha  occ. eigenvalues --   -0.26546  -0.25718  -0.25632  -0.24711  -0.24672
 Alpha  occ. eigenvalues --   -0.23173  -0.23088  -0.18193
 Alpha virt. eigenvalues --   -0.09301  -0.08968  -0.05831  -0.05454  -0.02321
 Alpha virt. eigenvalues --   -0.01249  -0.00732  -0.00411   0.00818   0.04286
 Alpha virt. eigenvalues --    0.05493   0.06053   0.06719   0.06888   0.07310

 Mulliken charges:
               1
     1  Pt   0.236384
     2  C   -0.291817
     3  N   -0.296834
     4  N   -0.296877
     5  C    0.149126
     6  C    0.149174
     7  C    0.170798
     8  C    0.170823
     9  C    0.025020
    10  C    0.025149
    11  C    0.238811
    12  C   -0.042886
    13  C    0.100276
    14  C   -0.132413
    15  C    0.238799
    16  C   -0.143013
    17  C   -0.042816
    18  C    0.100114
    19  H    0.018452
    20  C   -0.132275
    21  C   -0.112174
    22  F   -0.184184
    23  F   -0.184199
    24  H    0.046668
    25  C    0.560542
    26  H    0.033971
    27  H    0.046744
    28  C    0.560561
    29  H    0.018437
    30  H    0.033859
    31  C   -0.027815
    32  C   -0.034880
    33  C   -0.021071
    34  C   -0.021150
    35  C   -0.087126
    36  C   -0.087084
    37  C    0.207808
    38  N   -0.312418
    39  H    0.013535
    40  F   -0.174069
    41  F   -0.164839
    42  F   -0.173649
    43  F   -0.164708
    44  F   -0.173771
    45  F   -0.174203
    46  H   -0.022994
    47  H   -0.024984
    48  H   -0.024989
    49  H   -0.023005
    50  C    0.131719
    51  C    0.131742
    52  H    0.025388
    53  H    0.025112
    54  H    0.031362
    55  H    0.025173
    56  H    0.025327
    57  H    0.031367
 Sum of Mulliken charges =   0.00000

 Dipole moment (field-independent basis, Debye):
    X=             -3.9278    Y=             -0.0290    Z=             -0.4254  Tot=              3.9508
 Quadrupole moment (field-independent basis, Debye-Ang):
   XX=           -167.0817   YY=           -219.9521   ZZ=           -249.4256
   XY=              0.1598   XZ=             -1.2871   YZ=             -1.0220

  Exact polarizability: 903.686   0.434 685.195   2.754  -3.039 237.688
 Approx polarizability: 985.470   0.498 770.914   5.175  -3.792 289.234

 Normal termination of Gaussian 09 at Sat Apr  8 02:02:50 2023.
