 Gaussian 09, Revision D.01,
 Gaussian 09:  EM64L-G09RevD.01 24-Apr-2013

 ----------------------------------------------------------------------
 #p B3LYP/gen gfinput pseudo=read Integral(Grid=UltraFine,Acc2E=12) scf
 =maxcycle=200 Polar=(DCSHG) CPHF=RdFreq scrf=(iefpcm,read,solvent=n,n-
 DiMethylFormamide)
 ----------------------------------------------------------------------

 ------------------------------
 Primeira Hiperpolarizabilidade
 ------------------------------
 Symbolic Z-matrix:
 Charge =  0 Multiplicity = 1

                         Standard orientation:
 ---------------------------------------------------------------------
 Center     Atomic      Atomic             Coordinates (Angstroms)
 Number     Number       Type             X           Y           Z
 ---------------------------------------------------------------------
      1         78           0       -1.008098   -0.002554    0.023564
      2          6           0        1.040778    0.006667    0.073725
      3          7           0       -1.351872   -2.030588    0.021851
      4          7           0       -1.371945    2.022246    0.008714
      5          6           0       -0.428755    2.975399    0.046602
      6          6           0       -0.398749   -2.973631    0.063676
      7          6           0       -2.709059    2.370497   -0.042286
      8          6           0       -2.685437   -2.392870   -0.022148
      9          6           0       -3.612802   -1.258328   -0.063032
     10          6           0       -3.625038    1.226485   -0.074159
     11          6           0       -5.026887    1.184638   -0.123314
     12          6           0       -3.072336    3.724957   -0.058798
     13          6           0       -2.092344    4.709726   -0.020417
     14          6           0       -0.744979    4.330839    0.035451
     15          6           0       -5.014989   -1.230646   -0.112194
     16          6           0       -5.723602   -0.026574   -0.142658
     17          6           0       -3.034925   -3.751150   -0.020208
     18          6           0       -2.044755   -4.725434    0.024916
     19          1           0       -4.086756   -4.028898   -0.051962
     20          6           0       -0.700943   -4.332187    0.066180
     21          6           0       -2.958548   -0.012536   -0.045884
     22          9           0       -5.721231   -2.369921   -0.130392
     23          9           0       -5.744306    2.316719   -0.152261
     24          1           0        0.628075   -2.608296    0.098527
     25          6           0        0.398456   -5.362280    0.086817
     26          1           0       -2.317869   -5.782506    0.030833
     27          1           0        0.601877    2.621014    0.083278
     28          6           0        0.341059    5.372771    0.108014
     29          1           0       -4.126636    3.991341   -0.102923
     30          1           0       -2.375743    5.763900   -0.037457
     31          6           0        2.277388    0.010047    0.060642
     32          6           0        3.707803    0.013889    0.028194
     33          6           0        4.447523    1.218101   -0.023999
     34          6           0        4.455580   -1.186484    0.034584
     35          6           0        5.837091    1.229508   -0.071927
     36          6           0        5.845235   -1.190853   -0.012570
     37          6           0        6.585491    0.021156   -0.070201
     38          7           0        7.961809    0.024529   -0.122795
     39          1           0       -6.813007   -0.032125   -0.180343
     40          9           0        0.164122    6.329015   -0.821111
     41          9           0        1.561974    4.845788   -0.078463
     42          9           0        0.351159    5.992134    1.303574
     43          9           0        1.600000   -4.815854    0.333542
     44          9           0        0.487574   -6.010889   -1.089708
     45          9           0        0.175966   -6.297350    1.027787
     46          1           0        3.910527    2.170366   -0.029839
     47          1           0        6.346824    2.191499   -0.112978
     48          1           0        6.361574   -2.150201   -0.005956
     49          1           0        3.925014   -2.141478    0.075718
     50          6           0        8.685382    1.280513   -0.185956
     51          6           0        8.693844   -1.228146   -0.124189
     52          1           0        8.491668    1.917745    0.696229
     53          1           0        8.422404    1.868758   -1.084316
     54          1           0        9.762669    1.077961   -0.222194
     55          1           0        8.432484   -1.862719   -0.990876
     56          1           0        8.506737   -1.821220    0.789689
     57          1           0        9.769630   -1.020470   -0.173730
 ---------------------------------------------------------------------

 SCF Done:  E(RB3LYP) =  -2158.15104245     A.U. after   16 cycles

 The electronic state is 1-A.
 Alpha  occ. eigenvalues --  -24.73395 -24.73391 -24.72937 -24.72926 -24.72723
 Alpha  occ. eigenvalues --  -24.72714 -24.72488 -24.72486 -14.40789 -14.40782
 Alpha  occ. eigenvalues --  -14.34826 -10.44967 -10.44966 -10.30484 -10.30482
 Alpha  occ. eigenvalues --  -10.27572 -10.27569 -10.26526 -10.26517 -10.24104
 Alpha  occ. eigenvalues --  -10.24099 -10.23786 -10.23785 -10.22966 -10.22699
 Alpha  occ. eigenvalues --  -10.22695 -10.21802 -10.21795 -10.21670 -10.21668
 Alpha  occ. eigenvalues --  -10.21263 -10.20245 -10.19644 -10.18982 -10.18980
 Alpha  occ. eigenvalues --  -10.18310 -10.18309 -10.15398 -10.14544  -3.94344
 Alpha  occ. eigenvalues --   -2.19612  -2.19255  -2.16010  -1.31035  -1.31035
 Alpha  occ. eigenvalues --   -1.23440  -1.23391  -1.21995  -1.21994  -1.21474
 Alpha  occ. eigenvalues --   -1.21472  -0.99139  -0.98760  -0.94262  -0.88388
 Alpha  occ. eigenvalues --   -0.84896  -0.84821  -0.83970  -0.82555  -0.81324
 Alpha  occ. eigenvalues --   -0.76977  -0.76956  -0.75753  -0.74164  -0.72152
 Alpha  occ. eigenvalues --   -0.71619  -0.71253  -0.69782  -0.67949  -0.67493
 Alpha  occ. eigenvalues --   -0.66890  -0.66305  -0.65156  -0.63351  -0.62821
 Alpha  occ. eigenvalues --   -0.60653  -0.60468  -0.60370  -0.60360  -0.60117
 Alpha  occ. eigenvalues --   -0.59684  -0.59653  -0.58090  -0.57651  -0.55903
 Alpha  occ. eigenvalues --   -0.55423  -0.53634  -0.53426  -0.52738  -0.52156
 Alpha  occ. eigenvalues --   -0.50168  -0.50094  -0.48940  -0.48812  -0.48683
 Alpha  occ. eigenvalues --   -0.48478  -0.48158  -0.48094  -0.48047  -0.47860
 Alpha  occ. eigenvalues --   -0.47702  -0.47370  -0.46352  -0.46266  -0.45854
 Alpha  occ. eigenvalues --   -0.45756  -0.45362  -0.45067  -0.44396  -0.44061
 Alpha  occ. eigenvalues --   -0.44050  -0.43935  -0.43922  -0.43799  -0.42661
 Alpha  occ. eigenvalues --   -0.42085  -0.42080  -0.41934  -0.41044  -0.40869
 Alpha  occ. eigenvalues --   -0.40647  -0.40374  -0.39902  -0.39315  -0.39021
 Alpha  occ. eigenvalues --   -0.38584  -0.38498  -0.37843  -0.37748  -0.37558
 Alpha  occ. eigenvalues --   -0.36042  -0.34646  -0.33850  -0.33442  -0.33073
 Alpha  occ. eigenvalues --   -0.31933  -0.31012  -0.29918  -0.29730  -0.28499
 Alpha  occ. eigenvalues --   -0.26437  -0.25735  -0.25650  -0.24596  -0.24554
 Alpha  occ. eigenvalues --   -0.23148  -0.23036  -0.18216
 Alpha virt. eigenvalues --   -0.09366  -0.08962  -0.05827  -0.05457  -0.02376
 Alpha virt. eigenvalues --   -0.01097  -0.00750  -0.00408   0.00812   0.04542
 Alpha virt. eigenvalues --    0.05529   0.06127   0.06575   0.07086   0.07407

 Mulliken charges:
               1
     1  Pt   0.084812
     2  C   -0.366754
     3  N   -0.244259
     4  N   -0.244372
     5  C    0.140805
     6  C    0.140830
     7  C    0.151819
     8  C    0.151836
     9  C    0.040681
    10  C    0.040715
    11  C    0.233740
    12  C   -0.045225
    13  C    0.100491
    14  C   -0.132005
    15  C    0.233719
    16  C   -0.144666
    17  C   -0.045159
    18  C    0.100326
    19  H    0.018272
    20  C   -0.131871
    21  C   -0.054480
    22  F   -0.184220
    23  F   -0.184235
    24  H    0.047071
    25  C    0.560049
    26  H    0.033957
    27  H    0.047157
    28  C    0.560079
    29  H    0.018258
    30  H    0.033845
    31  C    0.085797
    32  C   -0.048281
    33  C   -0.020215
    34  C   -0.020294
    35  C   -0.087248
    36  C   -0.087205
    37  C    0.208353
    38  N   -0.312283
    39  H    0.013015
    40  F   -0.174075
    41  F   -0.164770
    42  F   -0.173656
    43  F   -0.164637
    44  F   -0.173777
    45  F   -0.174209
    46  H   -0.023012
    47  H   -0.024797
    48  H   -0.024801
    49  H   -0.023025
    50  C    0.131631
    51  C    0.131654
    52  H    0.025553
    53  H    0.025278
    54  H    0.031475
    55  H    0.025339
    56  H    0.025492
    57  H    0.031480
 Sum of Mulliken charges =   0.00000

 Dipole moment (field-independent basis, Debye):
    X=             -3.7678    Y=             -0.0283    Z=             -0.4238  Tot=              3.7917
 Quadrupole moment (field-independent basis, Debye-Ang):
   XX=           -166.5087   YY=           -219.8761   ZZ=           -249.3546
   XY=              0.1614   XZ=             -1.2882   YZ=             -1.0222

  Exact polarizability: 916.355   0.464 688.530   2.665  -3.039 241.073
 Approx polarizability: 996.614   0.524 774.241   5.119  -3.793 292.401

 Normal termination of Gaussian 09 at Sat Apr  8 03:30:42 2023.
