 Gaussian 16, Revision C.01,
 Gaussian 16:  EM64L-G16RevC.01  3-Jul-2019

 ----------------------------------------------------------------------
 #p B3LYP/gen gfinput Integral(Grid=UltraFine,Acc2E=12) scf=maxcycle=20
 0 Polar=(DCSHG) CPHF=RdFreq scrf=(iefpcm,solvent=n,n-DiMethylFormamide
 )
 ----------------------------------------------------------------------

 ------------------------------
 Primeira Hiperpolarizabilidade
 ------------------------------
 Symbolic Z-matrix:
 Charge =  0 Multiplicity = 1

                         Standard orientation:
 ---------------------------------------------------------------------
 Center     Atomic      Atomic             Coordinates (Angstroms)
 Number     Number       Type             X           Y           Z
 ---------------------------------------------------------------------
      1         78           0       -1.008098   -0.002554    0.023564
      2          6           0        1.040778    0.006667    0.073725
      3          7           0       -1.351872   -2.030588    0.021851
      4          7           0       -1.371945    2.022246    0.008714
      5          6           0       -0.428755    2.975399    0.046602
      6          6           0       -0.398749   -2.973631    0.063676
      7          6           0       -2.709059    2.370497   -0.042286
      8          6           0       -2.685437   -2.392870   -0.022148
      9          6           0       -3.612802   -1.258328   -0.063032
     10          6           0       -3.625038    1.226485   -0.074159
     11          6           0       -5.026887    1.184638   -0.123314
     12          6           0       -3.072336    3.724957   -0.058798
     13          6           0       -2.092344    4.709726   -0.020417
     14          6           0       -0.744979    4.330839    0.035451
     15          6           0       -5.014989   -1.230646   -0.112194
     16          6           0       -5.723602   -0.026574   -0.142658
     17          6           0       -3.034925   -3.751150   -0.020208
     18          6           0       -2.044755   -4.725434    0.024916
     19          1           0       -4.086756   -4.028898   -0.051962
     20          6           0       -0.700943   -4.332187    0.066180
     21          6           0       -2.958548   -0.012536   -0.045884
     22          9           0       -5.721231   -2.369921   -0.130392
     23          9           0       -5.744306    2.316719   -0.152261
     24          1           0        0.628075   -2.608296    0.098527
     25          6           0        0.398456   -5.362280    0.086817
     26          1           0       -2.317869   -5.782506    0.030833
     27          1           0        0.601877    2.621014    0.083278
     28          6           0        0.341059    5.372771    0.108014
     29          1           0       -4.126636    3.991341   -0.102923
     30          1           0       -2.375743    5.763900   -0.037457
     31          6           0        2.277388    0.010047    0.060642
     32          6           0        3.707803    0.013889    0.028194
     33          6           0        4.447523    1.218101   -0.023999
     34          6           0        4.455580   -1.186484    0.034584
     35          6           0        5.837091    1.229508   -0.071927
     36          6           0        5.845235   -1.190853   -0.012570
     37          6           0        6.585491    0.021156   -0.070201
     38          7           0        7.961809    0.024529   -0.122795
     39          1           0       -6.813007   -0.032125   -0.180343
     40          9           0        0.164122    6.329015   -0.821111
     41          9           0        1.561974    4.845788   -0.078463
     42          9           0        0.351159    5.992134    1.303574
     43          9           0        1.600000   -4.815854    0.333542
     44          9           0        0.487574   -6.010889   -1.089708
     45          9           0        0.175966   -6.297350    1.027787
     46          1           0        3.910527    2.170366   -0.029839
     47          1           0        6.346824    2.191499   -0.112978
     48          1           0        6.361574   -2.150201   -0.005956
     49          1           0        3.925014   -2.141478    0.075718
     50          6           0        8.685382    1.280513   -0.185956
     51          6           0        8.693844   -1.228146   -0.124189
     52          1           0        8.491668    1.917745    0.696229
     53          1           0        8.422404    1.868758   -1.084316
     54          1           0        9.762669    1.077961   -0.222194
     55          1           0        8.432484   -1.862719   -0.990876
     56          1           0        8.506737   -1.821220    0.789689
     57          1           0        9.769630   -1.020470   -0.173730
 ---------------------------------------------------------------------

 SCF Done:  E(RB3LYP) =  -19355.4594600     A.U. after   17 cycles

 The electronic state is 1-A.
 Alpha  occ. eigenvalues -- **********-438.10696-421.39437-421.39350-421.39147
 Alpha  occ. eigenvalues -- -100.68859 -93.39218 -93.38700 -93.37772 -79.60217
 Alpha  occ. eigenvalues --  -79.60026 -79.59887 -79.59743 -79.59685 -24.73320
 Alpha  occ. eigenvalues --  -24.73316 -24.72864 -24.72853 -24.72652 -24.72644
 Alpha  occ. eigenvalues --  -24.72449 -24.72447 -21.76405 -17.90041 -17.89441
 Alpha  occ. eigenvalues --  -17.88778 -14.39460 -14.39458 -14.34593 -11.79730
 Alpha  occ. eigenvalues --  -11.79213 -11.79002 -11.78626 -11.78587 -10.44848
 Alpha  occ. eigenvalues --  -10.44847 -10.30435 -10.30432 -10.27316 -10.27314
 Alpha  occ. eigenvalues --  -10.26196 -10.26187 -10.23963 -10.23958 -10.23555
 Alpha  occ. eigenvalues --  -10.23553 -10.22710 -10.22471 -10.22467 -10.21716
 Alpha  occ. eigenvalues --  -10.21709 -10.21660 -10.21659 -10.21308 -10.19877
 Alpha  occ. eigenvalues --  -10.19305 -10.18706 -10.18705 -10.18120 -10.18119
 Alpha  occ. eigenvalues --  -10.14361 -10.13231  -3.29745  -3.29640  -3.29316
 Alpha  occ. eigenvalues --   -3.28817  -3.28780  -3.28556  -3.28529  -3.08791
 Alpha  occ. eigenvalues --   -1.94701  -1.94377  -1.91401  -1.30962  -1.30961
 Alpha  occ. eigenvalues --   -1.23408  -1.23359  -1.21923  -1.21921  -1.21405
 Alpha  occ. eigenvalues --   -1.21404  -0.98481  -0.98119  -0.94078  -0.88299
 Alpha  occ. eigenvalues --   -0.84637  -0.84534  -0.83719  -0.82295  -0.81096
 Alpha  occ. eigenvalues --   -0.76850  -0.76835  -0.75412  -0.73977  -0.71974
 Alpha  occ. eigenvalues --   -0.71444  -0.71119  -0.69168  -0.67589  -0.67350
 Alpha  occ. eigenvalues --   -0.66651  -0.66086  -0.64740  -0.63262  -0.62638
 Alpha  occ. eigenvalues --   -0.60546  -0.60333  -0.60299  -0.60279  -0.59833
 Alpha  occ. eigenvalues --   -0.59468  -0.59420  -0.57838  -0.57408  -0.55757
 Alpha  occ. eigenvalues --   -0.55297  -0.53571  -0.53181  -0.52428  -0.51940
 Alpha  occ. eigenvalues --   -0.50060  -0.49841  -0.48778  -0.48555  -0.48505
 Alpha  occ. eigenvalues --   -0.48299  -0.48034  -0.48023  -0.47713  -0.47658
 Alpha  occ. eigenvalues --   -0.47442  -0.47195  -0.46232  -0.46188  -0.45551
 Alpha  occ. eigenvalues --   -0.45433  -0.45155  -0.44582  -0.44217  -0.43924
 Alpha  occ. eigenvalues --   -0.43921  -0.43821  -0.43801  -0.43562  -0.42462
 Alpha  occ. eigenvalues --   -0.42020  -0.42016  -0.41754  -0.40904  -0.40586
 Alpha  occ. eigenvalues --   -0.40541  -0.40293  -0.39776  -0.38922  -0.38520
 Alpha  occ. eigenvalues --   -0.38476  -0.38452  -0.37742  -0.37461  -0.37331
 Alpha  occ. eigenvalues --   -0.35616  -0.34629  -0.33636  -0.33164  -0.32914
 Alpha  occ. eigenvalues --   -0.32212  -0.30818  -0.30155  -0.30032  -0.27305
 Alpha  occ. eigenvalues --   -0.26964  -0.25486  -0.25463  -0.24875  -0.24319
 Alpha  occ. eigenvalues --   -0.23348  -0.22856  -0.17948
 Alpha virt. eigenvalues --   -0.08813  -0.08721  -0.05615  -0.05193  -0.01699
 Alpha virt. eigenvalues --   -0.01625  -0.00574  -0.00318   0.00959   0.04189
 Alpha virt. eigenvalues --    0.05958   0.06959   0.07349   0.07398   0.07803

 Mulliken charges:
               1
     1  Pt   0.710499
     2  C   -0.538088
     3  N   -0.286490
     4  N   -0.286468
     5  C    0.125325
     6  C    0.125406
     7  C    0.161546
     8  C    0.161596
     9  C   -0.007968
    10  C   -0.007844
    11  C    0.263325
    12  C   -0.038892
    13  C    0.095069
    14  C   -0.135541
    15  C    0.263303
    16  C   -0.148662
    17  C   -0.038827
    18  C    0.094910
    19  H    0.017086
    20  C   -0.135400
    21  C   -0.237820
    22  F   -0.184873
    23  F   -0.184888
    24  H    0.038032
    25  C    0.559996
    26  H    0.032920
    27  H    0.038113
    28  C    0.560004
    29  H    0.017072
    30  H    0.032809
    31  C   -0.019706
    32  C   -0.016152
    33  C   -0.024421
    34  C   -0.024484
    35  C   -0.087654
    36  C   -0.087607
    37  C    0.204980
    38  N   -0.313421
    39  H    0.014990
    40  F   -0.174735
    41  F   -0.165403
    42  F   -0.174320
    43  F   -0.165270
    44  F   -0.174441
    45  F   -0.174870
    46  H   -0.025251
    47  H   -0.026810
    48  H   -0.026814
    49  H   -0.025253
    50  C    0.132476
    51  C    0.132499
    52  H    0.024033
    53  H    0.023743
    54  H    0.030427
    55  H    0.023806
    56  H    0.023970
    57  H    0.030433
 Sum of Mulliken charges =  -0.00000

 Dipole moment (field-independent basis, Debye):
    X=             -5.0659    Y=             -0.0330    Z=             -0.4204  Tot=              5.0834
 Quadrupole moment (field-independent basis, Debye-Ang):
   XX=           -176.8239   YY=           -227.4466   ZZ=           -252.2494
   XY=              0.1556   XZ=             -1.3255   YZ=             -1.0007

  Exact polarizability:     824.599       0.304     655.360       3.918      -3.053     205.661
 Approx polarizability:     910.235       0.389     736.406       5.936      -3.784     258.087

 Normal termination of Gaussian 16 at Wed Apr 12 13:46:15 2023.
