 Gaussian 09, Revision D.01,
 Gaussian 09:  EM64L-G09RevD.01 24-Apr-2013

 ----------------------------------------------------------------------
 #p B3LYP/gen gfinput pseudo=read Integral(Grid=UltraFine,Acc2E=12) scf
 =maxcycle=200 Polar=(DCSHG) CPHF=RdFreq scrf=(iefpcm,read,solvent=n,n-
 DiMethylFormamide)
 ----------------------------------------------------------------------

 ------------------------------
 Primeira Hiperpolarizabilidade
 ------------------------------
 Symbolic Z-matrix:
 Charge =  0 Multiplicity = 1

                         Standard orientation:
 ---------------------------------------------------------------------
 Center     Atomic      Atomic             Coordinates (Angstroms)
 Number     Number       Type             X           Y           Z
 ---------------------------------------------------------------------
      1         78           0       -1.008098   -0.002554    0.023564
      2          6           0        1.040778    0.006667    0.073725
      3          7           0       -1.351872   -2.030588    0.021851
      4          7           0       -1.371945    2.022246    0.008714
      5          6           0       -0.428755    2.975399    0.046602
      6          6           0       -0.398749   -2.973631    0.063676
      7          6           0       -2.709059    2.370497   -0.042286
      8          6           0       -2.685437   -2.392870   -0.022148
      9          6           0       -3.612802   -1.258328   -0.063032
     10          6           0       -3.625038    1.226485   -0.074159
     11          6           0       -5.026887    1.184638   -0.123314
     12          6           0       -3.072336    3.724957   -0.058798
     13          6           0       -2.092344    4.709726   -0.020417
     14          6           0       -0.744979    4.330839    0.035451
     15          6           0       -5.014989   -1.230646   -0.112194
     16          6           0       -5.723602   -0.026574   -0.142658
     17          6           0       -3.034925   -3.751150   -0.020208
     18          6           0       -2.044755   -4.725434    0.024916
     19          1           0       -4.086756   -4.028898   -0.051962
     20          6           0       -0.700943   -4.332187    0.066180
     21          6           0       -2.958548   -0.012536   -0.045884
     22          9           0       -5.721231   -2.369921   -0.130392
     23          9           0       -5.744306    2.316719   -0.152261
     24          1           0        0.628075   -2.608296    0.098527
     25          6           0        0.398456   -5.362280    0.086817
     26          1           0       -2.317869   -5.782506    0.030833
     27          1           0        0.601877    2.621014    0.083278
     28          6           0        0.341059    5.372771    0.108014
     29          1           0       -4.126636    3.991341   -0.102923
     30          1           0       -2.375743    5.763900   -0.037457
     31          6           0        2.277388    0.010047    0.060642
     32          6           0        3.707803    0.013889    0.028194
     33          6           0        4.447523    1.218101   -0.023999
     34          6           0        4.455580   -1.186484    0.034584
     35          6           0        5.837091    1.229508   -0.071927
     36          6           0        5.845235   -1.190853   -0.012570
     37          6           0        6.585491    0.021156   -0.070201
     38          7           0        7.961809    0.024529   -0.122795
     39          1           0       -6.813007   -0.032125   -0.180343
     40          9           0        0.164122    6.329015   -0.821111
     41          9           0        1.561974    4.845788   -0.078463
     42          9           0        0.351159    5.992134    1.303574
     43          9           0        1.600000   -4.815854    0.333542
     44          9           0        0.487574   -6.010889   -1.089708
     45          9           0        0.175966   -6.297350    1.027787
     46          1           0        3.910527    2.170366   -0.029839
     47          1           0        6.346824    2.191499   -0.112978
     48          1           0        6.361574   -2.150201   -0.005956
     49          1           0        3.925014   -2.141478    0.075718
     50          6           0        8.685382    1.280513   -0.185956
     51          6           0        8.693844   -1.228146   -0.124189
     52          1           0        8.491668    1.917745    0.696229
     53          1           0        8.422404    1.868758   -1.084316
     54          1           0        9.762669    1.077961   -0.222194
     55          1           0        8.432484   -1.862719   -0.990876
     56          1           0        8.506737   -1.821220    0.789689
     57          1           0        9.769630   -1.020470   -0.173730
 ---------------------------------------------------------------------

 SCF Done:  E(RB3LYP) =  -2159.77410495     A.U. after   15 cycles

 The electronic state is 1-A.
 Alpha  occ. eigenvalues --  -24.74789 -24.74786 -24.74460 -24.74452 -24.74300
 Alpha  occ. eigenvalues --  -24.74293 -24.73720 -24.73720 -14.41198 -14.41197
 Alpha  occ. eigenvalues --  -14.35165 -10.45501 -10.45500 -10.30974 -10.30974
 Alpha  occ. eigenvalues --  -10.27963 -10.27961 -10.26827 -10.26818 -10.24613
 Alpha  occ. eigenvalues --  -10.24608 -10.24516 -10.24514 -10.23450 -10.23178
 Alpha  occ. eigenvalues --  -10.23174 -10.22297 -10.22296 -10.21882 -10.21881
 Alpha  occ. eigenvalues --  -10.21881 -10.20565 -10.20231 -10.19498 -10.19496
 Alpha  occ. eigenvalues --  -10.18824 -10.18823 -10.16244 -10.15310  -3.93560
 Alpha  occ. eigenvalues --   -2.16293  -2.15923  -2.12723  -1.33196  -1.33196
 Alpha  occ. eigenvalues --   -1.25568  -1.25522  -1.24381  -1.24378  -1.23928
 Alpha  occ. eigenvalues --   -1.23926  -1.00008  -0.99618  -0.95167  -0.89176
 Alpha  occ. eigenvalues --   -0.85793  -0.85722  -0.84734  -0.83388  -0.82137
 Alpha  occ. eigenvalues --   -0.77860  -0.77844  -0.76572  -0.74932  -0.73173
 Alpha  occ. eigenvalues --   -0.72693  -0.71967  -0.70646  -0.68498  -0.68295
 Alpha  occ. eigenvalues --   -0.67477  -0.66934  -0.65805  -0.63895  -0.63280
 Alpha  occ. eigenvalues --   -0.61060  -0.60913  -0.60905  -0.60854  -0.60382
 Alpha  occ. eigenvalues --   -0.60171  -0.59890  -0.58446  -0.58010  -0.55853
 Alpha  occ. eigenvalues --   -0.55704  -0.53722  -0.53379  -0.52591  -0.52072
 Alpha  occ. eigenvalues --   -0.50301  -0.50213  -0.49311  -0.49018  -0.48973
 Alpha  occ. eigenvalues --   -0.48614  -0.48578  -0.48309  -0.48245  -0.47983
 Alpha  occ. eigenvalues --   -0.47957  -0.47630  -0.46332  -0.46230  -0.45859
 Alpha  occ. eigenvalues --   -0.45772  -0.45570  -0.45205  -0.44540  -0.44417
 Alpha  occ. eigenvalues --   -0.44414  -0.44308  -0.44302  -0.43830  -0.42588
 Alpha  occ. eigenvalues --   -0.42583  -0.42432  -0.41794  -0.41141  -0.41031
 Alpha  occ. eigenvalues --   -0.40660  -0.40309  -0.39862  -0.39363  -0.38965
 Alpha  occ. eigenvalues --   -0.38611  -0.38485  -0.37736  -0.37578  -0.37409
 Alpha  occ. eigenvalues --   -0.36014  -0.34582  -0.33699  -0.33356  -0.32981
 Alpha  occ. eigenvalues --   -0.31864  -0.30938  -0.29927  -0.29655  -0.28845
 Alpha  occ. eigenvalues --   -0.26388  -0.25648  -0.25554  -0.24666  -0.24562
 Alpha  occ. eigenvalues --   -0.23080  -0.22959  -0.18145
 Alpha virt. eigenvalues --   -0.09424  -0.09018  -0.05940  -0.05564  -0.02539
 Alpha virt. eigenvalues --   -0.01239  -0.00940  -0.00540   0.00679   0.02587
 Alpha virt. eigenvalues --    0.03166   0.03540   0.05240   0.06361   0.06418

 Mulliken charges:
               1
     1  Pt   0.695071
     2  C   -0.296708
     3  N   -0.268766
     4  N   -0.268559
     5  C    0.155413
     6  C    0.155926
     7  C    0.078878
     8  C    0.078800
     9  C    0.068634
    10  C    0.068890
    11  C    0.104913
    12  C    0.032455
    13  C    0.114048
    14  C   -0.110123
    15  C    0.104902
    16  C   -0.051893
    17  C    0.032541
    18  C    0.114426
    19  H    0.036749
    20  C   -0.110231
    21  C   -0.266888
    22  F   -0.152675
    23  F   -0.152699
    24  H    0.043048
    25  C    0.399751
    26  H    0.036035
    27  H    0.043309
    28  C    0.399957
    29  H    0.036818
    30  H    0.036121
    31  C   -0.365418
    32  C    0.140712
    33  C   -0.029706
    34  C   -0.029398
    35  C   -0.063449
    36  C   -0.063416
    37  C    0.056076
    38  N   -0.175958
    39  H    0.033613
    40  F   -0.156460
    41  F   -0.152791
    42  F   -0.156363
    43  F   -0.152740
    44  F   -0.156358
    45  F   -0.156502
    46  H   -0.024430
    47  H    0.014850
    48  H    0.014844
    49  H   -0.024435
    50  C   -0.028467
    51  C   -0.028435
    52  H    0.058378
    53  H    0.058078
    54  H    0.056583
    55  H    0.058202
    56  H    0.058255
    57  H    0.056586
 Sum of Mulliken charges =   0.00000

 Dipole moment (field-independent basis, Debye):
    X=             -3.8629    Y=             -0.0290    Z=             -0.4411  Tot=              3.8881
 Quadrupole moment (field-independent basis, Debye-Ang):
   XX=           -166.2303   YY=           -223.1193   ZZ=           -249.6658
   XY=              0.1745   XZ=             -1.3611   YZ=             -1.0512

  Exact polarizability: 944.698   0.457 712.438   2.827  -2.830 244.624
 Approx polarizability:1016.437   0.512 791.915   5.212  -3.639 295.964

 Normal termination of Gaussian 09 at Fri May 19 11:55:50 2023.
