 Gaussian 16, Revision C.01,
 Gaussian 16:  EM64L-G16RevC.01  3-Jul-2019

 ----------------------------------------------------------------------
 #p B3LYP/gen gfinput Integral(Grid=UltraFine,Acc2E=12) scf=maxcycle=20
 0 Polar=(DCSHG) CPHF=RdFreq scrf=(iefpcm,solvent=n,n-DiMethylFormamide
 )
 ----------------------------------------------------------------------

 ------------------------------
 Primeira Hiperpolarizabilidade
 ------------------------------
 Symbolic Z-matrix:
 Charge =  0 Multiplicity = 1

                         Standard orientation:
 ---------------------------------------------------------------------
 Center     Atomic      Atomic             Coordinates (Angstroms)
 Number     Number       Type             X           Y           Z
 ---------------------------------------------------------------------
      1         78           0       -1.008098   -0.002554    0.023564
      2          6           0        1.040778    0.006667    0.073725
      3          7           0       -1.351872   -2.030588    0.021851
      4          7           0       -1.371945    2.022246    0.008714
      5          6           0       -0.428755    2.975399    0.046602
      6          6           0       -0.398749   -2.973631    0.063676
      7          6           0       -2.709059    2.370497   -0.042286
      8          6           0       -2.685437   -2.392870   -0.022148
      9          6           0       -3.612802   -1.258328   -0.063032
     10          6           0       -3.625038    1.226485   -0.074159
     11          6           0       -5.026887    1.184638   -0.123314
     12          6           0       -3.072336    3.724957   -0.058798
     13          6           0       -2.092344    4.709726   -0.020417
     14          6           0       -0.744979    4.330839    0.035451
     15          6           0       -5.014989   -1.230646   -0.112194
     16          6           0       -5.723602   -0.026574   -0.142658
     17          6           0       -3.034925   -3.751150   -0.020208
     18          6           0       -2.044755   -4.725434    0.024916
     19          1           0       -4.086756   -4.028898   -0.051962
     20          6           0       -0.700943   -4.332187    0.066180
     21          6           0       -2.958548   -0.012536   -0.045884
     22          9           0       -5.721231   -2.369921   -0.130392
     23          9           0       -5.744306    2.316719   -0.152261
     24          1           0        0.628075   -2.608296    0.098527
     25          6           0        0.398456   -5.362280    0.086817
     26          1           0       -2.317869   -5.782506    0.030833
     27          1           0        0.601877    2.621014    0.083278
     28          6           0        0.341059    5.372771    0.108014
     29          1           0       -4.126636    3.991341   -0.102923
     30          1           0       -2.375743    5.763900   -0.037457
     31          6           0        2.277388    0.010047    0.060642
     32          6           0        3.707803    0.013889    0.028194
     33          6           0        4.447523    1.218101   -0.023999
     34          6           0        4.455580   -1.186484    0.034584
     35          6           0        5.837091    1.229508   -0.071927
     36          6           0        5.845235   -1.190853   -0.012570
     37          6           0        6.585491    0.021156   -0.070201
     38          7           0        7.961809    0.024529   -0.122795
     39          1           0       -6.813007   -0.032125   -0.180343
     40          9           0        0.164122    6.329015   -0.821111
     41          9           0        1.561974    4.845788   -0.078463
     42          9           0        0.351159    5.992134    1.303574
     43          9           0        1.600000   -4.815854    0.333542
     44          9           0        0.487574   -6.010889   -1.089708
     45          9           0        0.175966   -6.297350    1.027787
     46          1           0        3.910527    2.170366   -0.029839
     47          1           0        6.346824    2.191499   -0.112978
     48          1           0        6.361574   -2.150201   -0.005956
     49          1           0        3.925014   -2.141478    0.075718
     50          6           0        8.685382    1.280513   -0.185956
     51          6           0        8.693844   -1.228146   -0.124189
     52          1           0        8.491668    1.917745    0.696229
     53          1           0        8.422404    1.868758   -1.084316
     54          1           0        9.762669    1.077961   -0.222194
     55          1           0        8.432484   -1.862719   -0.990876
     56          1           0        8.506737   -1.821220    0.789689
     57          1           0        9.769630   -1.020470   -0.173730
 ---------------------------------------------------------------------

 SCF Done:  E(RB3LYP) =  -19340.0067046     A.U. after   17 cycles

 The electronic state is 1-A.
 Alpha  occ. eigenvalues -- **********-434.56576-423.80028-423.80002-423.79958
 Alpha  occ. eigenvalues -- -102.31238 -96.22552 -96.22367 -96.22230 -81.63268
 Alpha  occ. eigenvalues --  -81.63210 -81.63193 -81.63140 -81.63120 -24.73288
 Alpha  occ. eigenvalues --  -24.73283 -24.72831 -24.72819 -24.72617 -24.72609
 Alpha  occ. eigenvalues --  -24.72199 -24.72197 -21.87262 -18.90357 -18.90060
 Alpha  occ. eigenvalues --  -18.89496 -14.40206 -14.40198 -14.34869 -11.22804
 Alpha  occ. eigenvalues --  -11.22233 -11.21946 -11.21758 -11.21666 -10.44809
 Alpha  occ. eigenvalues --  -10.44808 -10.30069 -10.30068 -10.27029 -10.27026
 Alpha  occ. eigenvalues --  -10.26119 -10.26110 -10.23686 -10.23681 -10.23454
 Alpha  occ. eigenvalues --  -10.23451 -10.23000 -10.22358 -10.22354 -10.21818
 Alpha  occ. eigenvalues --  -10.21811 -10.21138 -10.21136 -10.20868 -10.19645
 Alpha  occ. eigenvalues --  -10.19344 -10.19001 -10.19000 -10.18333 -10.18331
 Alpha  occ. eigenvalues --  -10.15428 -10.14362  -3.95779  -3.95742  -3.95417
 Alpha  occ. eigenvalues --   -3.95061  -3.95023  -3.94903  -3.94865  -3.25212
 Alpha  occ. eigenvalues --   -2.23593  -2.23556  -2.20464  -1.30927  -1.30927
 Alpha  occ. eigenvalues --   -1.23158  -1.23109  -1.21891  -1.21889  -1.21371
 Alpha  occ. eigenvalues --   -1.21369  -0.98792  -0.98456  -0.94292  -0.87985
 Alpha  occ. eigenvalues --   -0.84598  -0.84505  -0.83989  -0.82184  -0.80977
 Alpha  occ. eigenvalues --   -0.76644  -0.76607  -0.75774  -0.74184  -0.71898
 Alpha  occ. eigenvalues --   -0.71390  -0.71271  -0.69831  -0.67557  -0.67281
 Alpha  occ. eigenvalues --   -0.66587  -0.66074  -0.65189  -0.63075  -0.62519
 Alpha  occ. eigenvalues --   -0.60506  -0.60300  -0.60265  -0.60240  -0.59910
 Alpha  occ. eigenvalues --   -0.59694  -0.59481  -0.57913  -0.57498  -0.55598
 Alpha  occ. eigenvalues --   -0.55119  -0.53448  -0.53315  -0.52439  -0.51819
 Alpha  occ. eigenvalues --   -0.50178  -0.49812  -0.48605  -0.48542  -0.48528
 Alpha  occ. eigenvalues --   -0.48450  -0.48012  -0.47992  -0.47735  -0.47602
 Alpha  occ. eigenvalues --   -0.47530  -0.47161  -0.46373  -0.45998  -0.45627
 Alpha  occ. eigenvalues --   -0.45529  -0.45088  -0.44951  -0.44400  -0.43934
 Alpha  occ. eigenvalues --   -0.43927  -0.43804  -0.43777  -0.43524  -0.42681
 Alpha  occ. eigenvalues --   -0.41991  -0.41989  -0.41950  -0.40757  -0.40683
 Alpha  occ. eigenvalues --   -0.40389  -0.40347  -0.39870  -0.38933  -0.38587
 Alpha  occ. eigenvalues --   -0.38271  -0.38197  -0.37858  -0.37692  -0.37569
 Alpha  occ. eigenvalues --   -0.35891  -0.34223  -0.33869  -0.33184  -0.32725
 Alpha  occ. eigenvalues --   -0.31748  -0.30758  -0.29294  -0.29176  -0.29056
 Alpha  occ. eigenvalues --   -0.25669  -0.25628  -0.25501  -0.22868  -0.22536
 Alpha  occ. eigenvalues --   -0.22361  -0.22265  -0.18062
 Alpha virt. eigenvalues --   -0.09066  -0.08559  -0.05413  -0.05195  -0.02365
 Alpha virt. eigenvalues --   -0.00765  -0.00056   0.01172   0.01204   0.03938
 Alpha virt. eigenvalues --    0.05367   0.05949   0.06519   0.07446   0.07924

 Mulliken charges:
               1
     1  Pt   1.030003
     2  C   -0.520080
     3  N   -0.333628
     4  N   -0.333628
     5  C    0.128383
     6  C    0.128530
     7  C    0.133609
     8  C    0.133679
     9  C    0.070580
    10  C    0.070800
    11  C    0.241269
    12  C   -0.034748
    13  C    0.089174
    14  C   -0.137173
    15  C    0.241254
    16  C   -0.145325
    17  C   -0.034698
    18  C    0.089017
    19  H    0.014629
    20  C   -0.137078
    21  C   -0.471960
    22  F   -0.186492
    23  F   -0.186507
    24  H    0.044312
    25  C    0.558812
    26  H    0.030105
    27  H    0.044444
    28  C    0.558820
    29  H    0.014617
    30  H    0.029996
    31  C   -0.096256
    32  C   -0.033374
    33  C   -0.018636
    34  C   -0.018700
    35  C   -0.087031
    36  C   -0.086988
    37  C    0.208289
    38  N   -0.312032
    39  H    0.009719
    40  F   -0.174901
    41  F   -0.165697
    42  F   -0.174534
    43  F   -0.165568
    44  F   -0.174656
    45  F   -0.175038
    46  H   -0.022557
    47  H   -0.024575
    48  H   -0.024579
    49  H   -0.022575
    50  C    0.131477
    51  C    0.131500
    52  H    0.025811
    53  H    0.025536
    54  H    0.031648
    55  H    0.025597
    56  H    0.025751
    57  H    0.031653
 Sum of Mulliken charges =  -0.00000

 Dipole moment (field-independent basis, Debye):
    X=             -2.6261    Y=             -0.0220    Z=             -0.3885  Tot=              2.6547
 Quadrupole moment (field-independent basis, Debye-Ang):
   XX=           -177.4008   YY=           -231.7675   ZZ=           -254.5011
   XY=              0.1663   XZ=             -1.4577   YZ=             -1.0023

  Exact polarizability:     968.402       0.518     715.529       2.661      -3.108     247.654
 Approx polarizability:    1054.446       0.601     805.691       5.579      -3.903     296.264

 Normal termination of Gaussian 16 at Wed Apr 12 12:49:15 2023.
