 Gaussian 09, Revision D.01,
 Gaussian 09:  EM64L-G09RevD.01 24-Apr-2013

 ----------------------------------------------------------------------
 #p B3LYP/gen gfinput pseudo=read Integral(Grid=UltraFine,Acc2E=12) scf
 =maxcycle=200 Polar=(DCSHG) CPHF=RdFreq scrf=(iefpcm,read,solvent=n,n-
 DiMethylFormamide)
 ----------------------------------------------------------------------

 ------------------------------
 Primeira Hiperpolarizabilidade
 ------------------------------
 Symbolic Z-matrix:
 Charge =  0 Multiplicity = 1

                         Standard orientation:
 ---------------------------------------------------------------------
 Center     Atomic      Atomic             Coordinates (Angstroms)
 Number     Number       Type             X           Y           Z
 ---------------------------------------------------------------------
      1         78           0       -1.008098   -0.002554    0.023564
      2          6           0        1.040778    0.006667    0.073725
      3          7           0       -1.351872   -2.030588    0.021851
      4          7           0       -1.371945    2.022246    0.008714
      5          6           0       -0.428755    2.975399    0.046602
      6          6           0       -0.398749   -2.973631    0.063676
      7          6           0       -2.709059    2.370497   -0.042286
      8          6           0       -2.685437   -2.392870   -0.022148
      9          6           0       -3.612802   -1.258328   -0.063032
     10          6           0       -3.625038    1.226485   -0.074159
     11          6           0       -5.026887    1.184638   -0.123314
     12          6           0       -3.072336    3.724957   -0.058798
     13          6           0       -2.092344    4.709726   -0.020417
     14          6           0       -0.744979    4.330839    0.035451
     15          6           0       -5.014989   -1.230646   -0.112194
     16          6           0       -5.723602   -0.026574   -0.142658
     17          6           0       -3.034925   -3.751150   -0.020208
     18          6           0       -2.044755   -4.725434    0.024916
     19          1           0       -4.086756   -4.028898   -0.051962
     20          6           0       -0.700943   -4.332187    0.066180
     21          6           0       -2.958548   -0.012536   -0.045884
     22          9           0       -5.721231   -2.369921   -0.130392
     23          9           0       -5.744306    2.316719   -0.152261
     24          1           0        0.628075   -2.608296    0.098527
     25          6           0        0.398456   -5.362280    0.086817
     26          1           0       -2.317869   -5.782506    0.030833
     27          1           0        0.601877    2.621014    0.083278
     28          6           0        0.341059    5.372771    0.108014
     29          1           0       -4.126636    3.991341   -0.102923
     30          1           0       -2.375743    5.763900   -0.037457
     31          6           0        2.277388    0.010047    0.060642
     32          6           0        3.707803    0.013889    0.028194
     33          6           0        4.447523    1.218101   -0.023999
     34          6           0        4.455580   -1.186484    0.034584
     35          6           0        5.837091    1.229508   -0.071927
     36          6           0        5.845235   -1.190853   -0.012570
     37          6           0        6.585491    0.021156   -0.070201
     38          7           0        7.961809    0.024529   -0.122795
     39          1           0       -6.813007   -0.032125   -0.180343
     40          9           0        0.164122    6.329015   -0.821111
     41          9           0        1.561974    4.845788   -0.078463
     42          9           0        0.351159    5.992134    1.303574
     43          9           0        1.600000   -4.815854    0.333542
     44          9           0        0.487574   -6.010889   -1.089708
     45          9           0        0.175966   -6.297350    1.027787
     46          1           0        3.910527    2.170366   -0.029839
     47          1           0        6.346824    2.191499   -0.112978
     48          1           0        6.361574   -2.150201   -0.005956
     49          1           0        3.925014   -2.141478    0.075718
     50          6           0        8.685382    1.280513   -0.185956
     51          6           0        8.693844   -1.228146   -0.124189
     52          1           0        8.491668    1.917745    0.696229
     53          1           0        8.422404    1.868758   -1.084316
     54          1           0        9.762669    1.077961   -0.222194
     55          1           0        8.432484   -1.862719   -0.990876
     56          1           0        8.506737   -1.821220    0.789689
     57          1           0        9.769630   -1.020470   -0.173730
 ---------------------------------------------------------------------

 SCF Done:  E(RB3LYP) =  -2160.19369002     A.U. after   15 cycles

 The electronic state is 1-A.
 Alpha  occ. eigenvalues --  -24.72938 -24.72937 -24.72649 -24.72642 -24.72508
 Alpha  occ. eigenvalues --  -24.72502 -24.71880 -24.71879 -14.40011 -14.40009
 Alpha  occ. eigenvalues --  -14.34108 -10.44716 -10.44715 -10.29837 -10.29837
 Alpha  occ. eigenvalues --  -10.26859 -10.26856 -10.25589 -10.25579 -10.23325
 Alpha  occ. eigenvalues --  -10.23323 -10.23211 -10.23207 -10.22336 -10.21812
 Alpha  occ. eigenvalues --  -10.21808 -10.21099 -10.21098 -10.20618 -10.20618
 Alpha  occ. eigenvalues --  -10.20498 -10.19879 -10.19040 -10.18207 -10.18204
 Alpha  occ. eigenvalues --  -10.17583 -10.17582 -10.14670 -10.14120  -3.93553
 Alpha  occ. eigenvalues --   -2.16235  -2.15864  -2.12772  -1.33212  -1.33211
 Alpha  occ. eigenvalues --   -1.25716  -1.25673  -1.24494  -1.24492  -1.24096
 Alpha  occ. eigenvalues --   -1.24094  -0.99900  -0.99512  -0.95274  -0.89110
 Alpha  occ. eigenvalues --   -0.85698  -0.85631  -0.84871  -0.83299  -0.82053
 Alpha  occ. eigenvalues --   -0.77824  -0.77799  -0.76662  -0.75050  -0.73222
 Alpha  occ. eigenvalues --   -0.72749  -0.72051  -0.70740  -0.68505  -0.68378
 Alpha  occ. eigenvalues --   -0.67496  -0.66999  -0.65952  -0.63981  -0.63355
 Alpha  occ. eigenvalues --   -0.61286  -0.61202  -0.61199  -0.61083  -0.60536
 Alpha  occ. eigenvalues --   -0.60359  -0.60054  -0.58632  -0.58203  -0.56075
 Alpha  occ. eigenvalues --   -0.55809  -0.53936  -0.53734  -0.52772  -0.52244
 Alpha  occ. eigenvalues --   -0.50581  -0.50533  -0.49481  -0.49414  -0.49289
 Alpha  occ. eigenvalues --   -0.48991  -0.48960  -0.48620  -0.48522  -0.48185
 Alpha  occ. eigenvalues --   -0.48156  -0.47842  -0.46581  -0.46541  -0.46117
 Alpha  occ. eigenvalues --   -0.46045  -0.45809  -0.45355  -0.44829  -0.44776
 Alpha  occ. eigenvalues --   -0.44772  -0.44673  -0.44655  -0.43953  -0.43045
 Alpha  occ. eigenvalues --   -0.43039  -0.42734  -0.42148  -0.41359  -0.41228
 Alpha  occ. eigenvalues --   -0.40861  -0.40597  -0.40094  -0.39533  -0.39108
 Alpha  occ. eigenvalues --   -0.38815  -0.38727  -0.37987  -0.37889  -0.37809
 Alpha  occ. eigenvalues --   -0.36054  -0.34728  -0.33993  -0.33511  -0.33140
 Alpha  occ. eigenvalues --   -0.32141  -0.31177  -0.29996  -0.29800  -0.28965
 Alpha  occ. eigenvalues --   -0.26478  -0.25930  -0.25913  -0.24700  -0.24681
 Alpha  occ. eigenvalues --   -0.23336  -0.23183  -0.18483
 Alpha virt. eigenvalues --   -0.09618  -0.09200  -0.06165  -0.05741  -0.02810
 Alpha virt. eigenvalues --   -0.01420  -0.01380  -0.00874   0.00488   0.02455
 Alpha virt. eigenvalues --    0.02657   0.03060   0.04271   0.05480   0.05896

 Mulliken charges:
               1
     1  Pt   0.930151
     2  C   -0.487469
     3  N   -0.526192
     4  N   -0.525936
     5  C    0.081912
     6  C    0.083062
     7  C    0.321265
     8  C    0.321013
     9  C   -0.064055
    10  C   -0.064161
    11  C    0.277515
    12  C   -0.097741
    13  C    0.034320
    14  C   -0.069719
    15  C    0.277451
    16  C   -0.285213
    17  C   -0.097614
    18  C    0.034099
    19  H    0.067627
    20  C   -0.070061
    21  C   -0.157976
    22  F   -0.199729
    23  F   -0.199763
    24  H    0.157096
    25  C    0.559507
    26  H    0.079710
    27  H    0.156272
    28  C    0.559963
    29  H    0.067689
    30  H    0.079904
    31  C   -0.201826
    32  C    0.109562
    33  C   -0.149927
    34  C   -0.149095
    35  C   -0.110396
    36  C   -0.110084
    37  C    0.248241
    38  N   -0.217003
    39  H    0.085606
    40  F   -0.200221
    41  F   -0.202905
    42  F   -0.199211
    43  F   -0.202915
    44  F   -0.199282
    45  F   -0.200212
    46  H    0.069054
    47  H    0.041608
    48  H    0.041664
    49  H    0.068970
    50  C    0.036151
    51  C    0.036138
    52  H    0.029567
    53  H    0.029396
    54  H    0.022603
    55  H    0.029366
    56  H    0.029601
    57  H    0.022622
 Sum of Mulliken charges =   0.00000

 Dipole moment (field-independent basis, Debye):
    X=             -3.8985    Y=             -0.0289    Z=             -0.4414  Tot=              3.9235
 Quadrupole moment (field-independent basis, Debye-Ang):
   XX=           -168.6760   YY=           -224.5537   ZZ=           -251.7626
   XY=              0.1686   XZ=             -1.3878   YZ=             -1.0190

  Exact polarizability: 973.802   0.451 746.665   3.014  -2.705 288.715
 Approx polarizability:1041.721   0.507 823.415   5.227  -3.438 349.317

 Normal termination of Gaussian 09 at Fri May 19 20:16:14 2023.
