 Gaussian 09, Revision D.01,
 Gaussian 09:  EM64L-G09RevD.01 24-Apr-2013

 ----------------------------------------------------------------------
 #p B3LYP/gen gfinput pseudo=read Integral(Grid=UltraFine,Acc2E=12) scf
 =maxcycle=200 Polar=(DCSHG) CPHF=RdFreq scrf=(iefpcm,read,solvent=n,n-
 DiMethylFormamide)
 ----------------------------------------------------------------------

 ------------------------------
 Primeira Hiperpolarizabilidade
 ------------------------------
 Symbolic Z-matrix:
 Charge =  0 Multiplicity = 1

                         Standard orientation:
 ---------------------------------------------------------------------
 Center     Atomic      Atomic             Coordinates (Angstroms)
 Number     Number       Type             X           Y           Z
 ---------------------------------------------------------------------
      1         78           0       -1.008098   -0.002554    0.023564
      2          6           0        1.040778    0.006667    0.073725
      3          7           0       -1.351872   -2.030588    0.021851
      4          7           0       -1.371945    2.022246    0.008714
      5          6           0       -0.428755    2.975399    0.046602
      6          6           0       -0.398749   -2.973631    0.063676
      7          6           0       -2.709059    2.370497   -0.042286
      8          6           0       -2.685437   -2.392870   -0.022148
      9          6           0       -3.612802   -1.258328   -0.063032
     10          6           0       -3.625038    1.226485   -0.074159
     11          6           0       -5.026887    1.184638   -0.123314
     12          6           0       -3.072336    3.724957   -0.058798
     13          6           0       -2.092344    4.709726   -0.020417
     14          6           0       -0.744979    4.330839    0.035451
     15          6           0       -5.014989   -1.230646   -0.112194
     16          6           0       -5.723602   -0.026574   -0.142658
     17          6           0       -3.034925   -3.751150   -0.020208
     18          6           0       -2.044755   -4.725434    0.024916
     19          1           0       -4.086756   -4.028898   -0.051962
     20          6           0       -0.700943   -4.332187    0.066180
     21          6           0       -2.958548   -0.012536   -0.045884
     22          9           0       -5.721231   -2.369921   -0.130392
     23          9           0       -5.744306    2.316719   -0.152261
     24          1           0        0.628075   -2.608296    0.098527
     25          6           0        0.398456   -5.362280    0.086817
     26          1           0       -2.317869   -5.782506    0.030833
     27          1           0        0.601877    2.621014    0.083278
     28          6           0        0.341059    5.372771    0.108014
     29          1           0       -4.126636    3.991341   -0.102923
     30          1           0       -2.375743    5.763900   -0.037457
     31          6           0        2.277388    0.010047    0.060642
     32          6           0        3.707803    0.013889    0.028194
     33          6           0        4.447523    1.218101   -0.023999
     34          6           0        4.455580   -1.186484    0.034584
     35          6           0        5.837091    1.229508   -0.071927
     36          6           0        5.845235   -1.190853   -0.012570
     37          6           0        6.585491    0.021156   -0.070201
     38          7           0        7.961809    0.024529   -0.122795
     39          1           0       -6.813007   -0.032125   -0.180343
     40          9           0        0.164122    6.329015   -0.821111
     41          9           0        1.561974    4.845788   -0.078463
     42          9           0        0.351159    5.992134    1.303574
     43          9           0        1.600000   -4.815854    0.333542
     44          9           0        0.487574   -6.010889   -1.089708
     45          9           0        0.175966   -6.297350    1.027787
     46          1           0        3.910527    2.170366   -0.029839
     47          1           0        6.346824    2.191499   -0.112978
     48          1           0        6.361574   -2.150201   -0.005956
     49          1           0        3.925014   -2.141478    0.075718
     50          6           0        8.685382    1.280513   -0.185956
     51          6           0        8.693844   -1.228146   -0.124189
     52          1           0        8.491668    1.917745    0.696229
     53          1           0        8.422404    1.868758   -1.084316
     54          1           0        9.762669    1.077961   -0.222194
     55          1           0        8.432484   -1.862719   -0.990876
     56          1           0        8.506737   -1.821220    0.789689
     57          1           0        9.769630   -1.020470   -0.173730
 ---------------------------------------------------------------------

 SCF Done:  E(RB3LYP) =  -2157.90888100     A.U. after   16 cycles

 The electronic state is 1-A.
 Alpha  occ. eigenvalues --  -24.73409 -24.73404 -24.72951 -24.72939 -24.72740
 Alpha  occ. eigenvalues --  -24.72731 -24.72527 -24.72524 -14.41141 -14.41140
 Alpha  occ. eigenvalues --  -14.34805 -10.44984 -10.44984 -10.30541 -10.30539
 Alpha  occ. eigenvalues --  -10.27656 -10.27654 -10.26606 -10.26597 -10.24140
 Alpha  occ. eigenvalues --  -10.24135 -10.23823 -10.23821 -10.22944 -10.22732
 Alpha  occ. eigenvalues --  -10.22728 -10.21794 -10.21787 -10.21762 -10.21760
 Alpha  occ. eigenvalues --  -10.21310 -10.20571 -10.19574 -10.18957 -10.18956
 Alpha  occ. eigenvalues --  -10.18295 -10.18293 -10.15344 -10.14849  -3.94560
 Alpha  occ. eigenvalues --   -2.17275  -2.16900  -2.13261  -1.31049  -1.31049
 Alpha  occ. eigenvalues --   -1.23476  -1.23426  -1.22008  -1.22007  -1.21488
 Alpha  occ. eigenvalues --   -1.21486  -0.99199  -0.98800  -0.94245  -0.88457
 Alpha  occ. eigenvalues --   -0.84935  -0.84868  -0.83950  -0.82597  -0.81362
 Alpha  occ. eigenvalues --   -0.77047  -0.76998  -0.75733  -0.74147  -0.72190
 Alpha  occ. eigenvalues --   -0.71652  -0.71241  -0.69766  -0.68027  -0.67528
 Alpha  occ. eigenvalues --   -0.66931  -0.66336  -0.65144  -0.63428  -0.62866
 Alpha  occ. eigenvalues --   -0.60673  -0.60495  -0.60383  -0.60374  -0.60169
 Alpha  occ. eigenvalues --   -0.59695  -0.59653  -0.58155  -0.57658  -0.55955
 Alpha  occ. eigenvalues --   -0.55479  -0.53675  -0.53411  -0.52787  -0.52203
 Alpha  occ. eigenvalues --   -0.50165  -0.50129  -0.49076  -0.48846  -0.48714
 Alpha  occ. eigenvalues --   -0.48464  -0.48213  -0.48108  -0.48084  -0.47891
 Alpha  occ. eigenvalues --   -0.47725  -0.47391  -0.46341  -0.46306  -0.45895
 Alpha  occ. eigenvalues --   -0.45779  -0.45474  -0.45115  -0.44392  -0.44084
 Alpha  occ. eigenvalues --   -0.44077  -0.44032  -0.43937  -0.43871  -0.42645
 Alpha  occ. eigenvalues --   -0.42098  -0.42092  -0.41919  -0.41094  -0.40933
 Alpha  occ. eigenvalues --   -0.40695  -0.40366  -0.39910  -0.39394  -0.39074
 Alpha  occ. eigenvalues --   -0.38627  -0.38555  -0.37834  -0.37750  -0.37541
 Alpha  occ. eigenvalues --   -0.36130  -0.34716  -0.33834  -0.33469  -0.33104
 Alpha  occ. eigenvalues --   -0.31981  -0.31026  -0.30196  -0.29827  -0.28570
 Alpha  occ. eigenvalues --   -0.26580  -0.25729  -0.25634  -0.24778  -0.24709
 Alpha  occ. eigenvalues --   -0.23241  -0.23107  -0.18202
 Alpha virt. eigenvalues --   -0.09374  -0.09005  -0.05859  -0.05501  -0.02395
 Alpha virt. eigenvalues --   -0.01389  -0.00734  -0.00453   0.00791   0.02727
 Alpha virt. eigenvalues --    0.03493   0.03940   0.06082   0.06845   0.06896

 Mulliken charges:
               1
     1  Pt   0.771135
     2  C   -0.428745
     3  N   -0.331054
     4  N   -0.330967
     5  C    0.156325
     6  C    0.156431
     7  C    0.182153
     8  C    0.182198
     9  C    0.027510
    10  C    0.027709
    11  C    0.263762
    12  C   -0.044818
    13  C    0.099825
    14  C   -0.134133
    15  C    0.263738
    16  C   -0.154040
    17  C   -0.044754
    18  C    0.099670
    19  H    0.020783
    20  C   -0.134011
    21  C   -0.429242
    22  F   -0.184604
    23  F   -0.184619
    24  H    0.050798
    25  C    0.561174
    26  H    0.034753
    27  H    0.050889
    28  C    0.561181
    29  H    0.020766
    30  H    0.034640
    31  C   -0.183073
    32  C    0.015516
    33  C   -0.022529
    34  C   -0.022597
    35  C   -0.085801
    36  C   -0.085757
    37  C    0.206179
    38  N   -0.312401
    39  H    0.015546
    40  F   -0.173895
    41  F   -0.164827
    42  F   -0.173353
    43  F   -0.164698
    44  F   -0.173485
    45  F   -0.174024
    46  H   -0.021308
    47  H   -0.024951
    48  H   -0.024956
    49  H   -0.021325
    50  C    0.131693
    51  C    0.131716
    52  H    0.025416
    53  H    0.025140
    54  H    0.031380
    55  H    0.025201
    56  H    0.025356
    57  H    0.031385
 Sum of Mulliken charges =   0.00000

 Dipole moment (field-independent basis, Debye):
    X=             -3.9833    Y=             -0.0294    Z=             -0.4287  Tot=              4.0064
 Quadrupole moment (field-independent basis, Debye-Ang):
   XX=           -166.5955   YY=           -219.5469   ZZ=           -249.5519
   XY=              0.1599   XZ=             -1.2797   YZ=             -1.0178

  Exact polarizability: 904.802   0.438 684.967   2.657  -3.030 239.644
 Approx polarizability: 982.130   0.495 767.707   5.083  -3.775 286.872

 Normal termination of Gaussian 09 at Wed May 17 23:58:40 2023.
