 Gaussian 09, Revision D.01,
 Gaussian 09:  EM64L-G09RevD.01 24-Apr-2013

 ----------------------------------------------------------------------
 #p LC-BLYP/gen gfinput pseudo=read Integral(Grid=UltraFine,Acc2E=12) s
 cf=maxcycle=200 Polar=(DCSHG) CPHF=RdFreq scrf=(iefpcm,read,solvent=n,
 n-DiMethylFormamide)
 ----------------------------------------------------------------------

 ------------------------------
 Primeira Hiperpolarizabilidade
 ------------------------------
 Symbolic Z-matrix:
 Charge =  0 Multiplicity = 1

                         Standard orientation:
 ---------------------------------------------------------------------
 Center     Atomic      Atomic             Coordinates (Angstroms)
 Number     Number       Type             X           Y           Z
 ---------------------------------------------------------------------
      1         78           0       -1.008098   -0.002554    0.023564
      2          6           0        1.040778    0.006667    0.073725
      3          7           0       -1.351872   -2.030588    0.021851
      4          7           0       -1.371945    2.022246    0.008714
      5          6           0       -0.428755    2.975399    0.046602
      6          6           0       -0.398749   -2.973631    0.063676
      7          6           0       -2.709059    2.370497   -0.042286
      8          6           0       -2.685437   -2.392870   -0.022148
      9          6           0       -3.612802   -1.258328   -0.063032
     10          6           0       -3.625038    1.226485   -0.074159
     11          6           0       -5.026887    1.184638   -0.123314
     12          6           0       -3.072336    3.724957   -0.058798
     13          6           0       -2.092344    4.709726   -0.020417
     14          6           0       -0.744979    4.330839    0.035451
     15          6           0       -5.014989   -1.230646   -0.112194
     16          6           0       -5.723602   -0.026574   -0.142658
     17          6           0       -3.034925   -3.751150   -0.020208
     18          6           0       -2.044755   -4.725434    0.024916
     19          1           0       -4.086756   -4.028898   -0.051962
     20          6           0       -0.700943   -4.332187    0.066180
     21          6           0       -2.958548   -0.012536   -0.045884
     22          9           0       -5.721231   -2.369921   -0.130392
     23          9           0       -5.744306    2.316719   -0.152261
     24          1           0        0.628075   -2.608296    0.098527
     25          6           0        0.398456   -5.362280    0.086817
     26          1           0       -2.317869   -5.782506    0.030833
     27          1           0        0.601877    2.621014    0.083278
     28          6           0        0.341059    5.372771    0.108014
     29          1           0       -4.126636    3.991341   -0.102923
     30          1           0       -2.375743    5.763900   -0.037457
     31          6           0        2.277388    0.010047    0.060642
     32          6           0        3.707803    0.013889    0.028194
     33          6           0        4.447523    1.218101   -0.023999
     34          6           0        4.455580   -1.186484    0.034584
     35          6           0        5.837091    1.229508   -0.071927
     36          6           0        5.845235   -1.190853   -0.012570
     37          6           0        6.585491    0.021156   -0.070201
     38          7           0        7.961809    0.024529   -0.122795
     39          1           0       -6.813007   -0.032125   -0.180343
     40          9           0        0.164122    6.329015   -0.821111
     41          9           0        1.561974    4.845788   -0.078463
     42          9           0        0.351159    5.992134    1.303574
     43          9           0        1.600000   -4.815854    0.333542
     44          9           0        0.487574   -6.010889   -1.089708
     45          9           0        0.175966   -6.297350    1.027787
     46          1           0        3.910527    2.170366   -0.029839
     47          1           0        6.346824    2.191499   -0.112978
     48          1           0        6.361574   -2.150201   -0.005956
     49          1           0        3.925014   -2.141478    0.075718
     50          6           0        8.685382    1.280513   -0.185956
     51          6           0        8.693844   -1.228146   -0.124189
     52          1           0        8.491668    1.917745    0.696229
     53          1           0        8.422404    1.868758   -1.084316
     54          1           0        9.762669    1.077961   -0.222194
     55          1           0        8.432484   -1.862719   -0.990876
     56          1           0        8.506737   -1.821220    0.789689
     57          1           0        9.769630   -1.020470   -0.173730
 ---------------------------------------------------------------------

 SCF Done:  E(RLC-B+HF-LYP) =  -2152.85851434     A.U. after   17 cycles

 The electronic state is 1-A.
 Alpha  occ. eigenvalues --  -24.57374 -24.57368 -24.56849 -24.56836 -24.56608
 Alpha  occ. eigenvalues --  -24.56598 -24.56242 -24.56239 -14.33541 -14.33539
 Alpha  occ. eigenvalues --  -14.26378 -10.42566 -10.42565 -10.28202 -10.28199
 Alpha  occ. eigenvalues --  -10.25398 -10.25395 -10.24121 -10.24111 -10.21723
 Alpha  occ. eigenvalues --  -10.21718 -10.20962 -10.20960 -10.20311 -10.19669
 Alpha  occ. eigenvalues --  -10.19664 -10.18538 -10.18535 -10.18197 -10.18186
 Alpha  occ. eigenvalues --  -10.18040 -10.17369 -10.16457 -10.16115 -10.16114
 Alpha  occ. eigenvalues --  -10.15060 -10.15059 -10.12151 -10.11523  -4.04192
 Alpha  occ. eigenvalues --   -2.29071  -2.28818  -2.25180  -1.46625  -1.46624
 Alpha  occ. eigenvalues --   -1.38297  -1.38217  -1.36579  -1.36578  -1.36004
 Alpha  occ. eigenvalues --   -1.36003  -1.16537  -1.16077  -1.10954  -1.05885
 Alpha  occ. eigenvalues --   -1.02053  -1.01924  -1.01356  -0.99532  -0.98261
 Alpha  occ. eigenvalues --   -0.93474  -0.93357  -0.92354  -0.90800  -0.87751
 Alpha  occ. eigenvalues --   -0.87354  -0.87205  -0.85735  -0.83817  -0.82846
 Alpha  occ. eigenvalues --   -0.82424  -0.81608  -0.80518  -0.78549  -0.77909
 Alpha  occ. eigenvalues --   -0.75701  -0.75587  -0.75106  -0.75100  -0.74963
 Alpha  occ. eigenvalues --   -0.74839  -0.74743  -0.72809  -0.72297  -0.70703
 Alpha  occ. eigenvalues --   -0.69898  -0.68068  -0.67760  -0.66920  -0.66387
 Alpha  occ. eigenvalues --   -0.65156  -0.63923  -0.63454  -0.63233  -0.62932
 Alpha  occ. eigenvalues --   -0.62586  -0.62542  -0.62245  -0.62143  -0.61870
 Alpha  occ. eigenvalues --   -0.61728  -0.61278  -0.60708  -0.60552  -0.60435
 Alpha  occ. eigenvalues --   -0.59917  -0.59231  -0.58779  -0.58175  -0.58156
 Alpha  occ. eigenvalues --   -0.57996  -0.57866  -0.57834  -0.57129  -0.56060
 Alpha  occ. eigenvalues --   -0.56054  -0.55692  -0.55259  -0.54223  -0.54033
 Alpha  occ. eigenvalues --   -0.53918  -0.53384  -0.52672  -0.52255  -0.52160
 Alpha  occ. eigenvalues --   -0.51617  -0.51611  -0.51444  -0.50446  -0.50252
 Alpha  occ. eigenvalues --   -0.48472  -0.46925  -0.45991  -0.45233  -0.44659
 Alpha  occ. eigenvalues --   -0.44478  -0.42655  -0.42291  -0.40997  -0.40592
 Alpha  occ. eigenvalues --   -0.37019  -0.36677  -0.36516  -0.35918  -0.34525
 Alpha  occ. eigenvalues --   -0.34397  -0.33067  -0.27373
 Alpha virt. eigenvalues --   -0.01615  -0.01310   0.03129   0.03371   0.05407
 Alpha virt. eigenvalues --    0.08173   0.08393   0.08569   0.08871   0.09170
 Alpha virt. eigenvalues --    0.09676   0.10705   0.14505   0.15556   0.16181

 Mulliken charges:
               1
     1  Pt   0.717855
     2  C   -0.500299
     3  N   -0.281050
     4  N   -0.281010
     5  C    0.115024
     6  C    0.115067
     7  C    0.157111
     8  C    0.157155
     9  C    0.015359
    10  C    0.015484
    11  C    0.208160
    12  C   -0.073925
    13  C    0.091782
    14  C   -0.136024
    15  C    0.208102
    16  C   -0.169514
    17  C   -0.073823
    18  C    0.091685
    19  H    0.046011
    20  C   -0.135830
    21  C   -0.357389
    22  F   -0.148167
    23  F   -0.148182
    24  H    0.072768
    25  C    0.448553
    26  H    0.068464
    27  H    0.072966
    28  C    0.448637
    29  H    0.045992
    30  H    0.068336
    31  C   -0.082630
    32  C   -0.012088
    33  C   -0.034313
    34  C   -0.034351
    35  C   -0.118201
    36  C   -0.118148
    37  C    0.189196
    38  N   -0.270519
    39  H    0.042383
    40  F   -0.140897
    41  F   -0.130259
    42  F   -0.140310
    43  F   -0.130086
    44  F   -0.140446
    45  F   -0.141026
    46  H    0.005719
    47  H    0.002155
    48  H    0.002149
    49  H    0.005647
    50  C    0.055339
    51  C    0.055366
    52  H    0.043719
    53  H    0.043476
    54  H    0.050814
    55  H    0.043530
    56  H    0.043664
    57  H    0.050818
 Sum of Mulliken charges =   0.00000

 Dipole moment (field-independent basis, Debye):
    X=             -4.5902    Y=             -0.0309    Z=             -0.4140  Tot=              4.6089
 Quadrupole moment (field-independent basis, Debye-Ang):
   XX=           -172.1891   YY=           -216.4295   ZZ=           -250.6073
   XY=              0.1300   XZ=             -1.2307   YZ=             -1.1159

  Exact polarizability: 722.153   0.200 597.216   2.709  -2.769 236.197
 Approx polarizability: 484.868   0.129 422.097   2.505  -1.935 211.746

 Normal termination of Gaussian 09 at Sat Feb  4 03:21:00 2023.
