 Gaussian 09, Revision D.01,
 Gaussian 09:  EM64L-G09RevD.01 24-Apr-2013

 ----------------------------------------------------------------------
 #p M062X/gen gfinput pseudo=read Integral(Grid=UltraFine,Acc2E=12) scf
 =maxcycle=200 Polar=(DCSHG) CPHF=RdFreq scrf=(iefpcm,read,solvent=n,n-
 DiMethylFormamide)
 ----------------------------------------------------------------------

 ------------------------------
 Primeira Hiperpolarizabilidade
 ------------------------------
 Symbolic Z-matrix:
 Charge =  0 Multiplicity = 1

                         Standard orientation:
 ---------------------------------------------------------------------
 Center     Atomic      Atomic             Coordinates (Angstroms)
 Number     Number       Type             X           Y           Z
 ---------------------------------------------------------------------
      1         78           0       -1.008098   -0.002554    0.023564
      2          6           0        1.040778    0.006667    0.073725
      3          7           0       -1.351872   -2.030588    0.021851
      4          7           0       -1.371945    2.022246    0.008714
      5          6           0       -0.428755    2.975399    0.046602
      6          6           0       -0.398749   -2.973631    0.063676
      7          6           0       -2.709059    2.370497   -0.042286
      8          6           0       -2.685437   -2.392870   -0.022148
      9          6           0       -3.612802   -1.258328   -0.063032
     10          6           0       -3.625038    1.226485   -0.074159
     11          6           0       -5.026887    1.184638   -0.123314
     12          6           0       -3.072336    3.724957   -0.058798
     13          6           0       -2.092344    4.709726   -0.020417
     14          6           0       -0.744979    4.330839    0.035451
     15          6           0       -5.014989   -1.230646   -0.112194
     16          6           0       -5.723602   -0.026574   -0.142658
     17          6           0       -3.034925   -3.751150   -0.020208
     18          6           0       -2.044755   -4.725434    0.024916
     19          1           0       -4.086756   -4.028898   -0.051962
     20          6           0       -0.700943   -4.332187    0.066180
     21          6           0       -2.958548   -0.012536   -0.045884
     22          9           0       -5.721231   -2.369921   -0.130392
     23          9           0       -5.744306    2.316719   -0.152261
     24          1           0        0.628075   -2.608296    0.098527
     25          6           0        0.398456   -5.362280    0.086817
     26          1           0       -2.317869   -5.782506    0.030833
     27          1           0        0.601877    2.621014    0.083278
     28          6           0        0.341059    5.372771    0.108014
     29          1           0       -4.126636    3.991341   -0.102923
     30          1           0       -2.375743    5.763900   -0.037457
     31          6           0        2.277388    0.010047    0.060642
     32          6           0        3.707803    0.013889    0.028194
     33          6           0        4.447523    1.218101   -0.023999
     34          6           0        4.455580   -1.186484    0.034584
     35          6           0        5.837091    1.229508   -0.071927
     36          6           0        5.845235   -1.190853   -0.012570
     37          6           0        6.585491    0.021156   -0.070201
     38          7           0        7.961809    0.024529   -0.122795
     39          1           0       -6.813007   -0.032125   -0.180343
     40          9           0        0.164122    6.329015   -0.821111
     41          9           0        1.561974    4.845788   -0.078463
     42          9           0        0.351159    5.992134    1.303574
     43          9           0        1.600000   -4.815854    0.333542
     44          9           0        0.487574   -6.010889   -1.089708
     45          9           0        0.175966   -6.297350    1.027787
     46          1           0        3.910527    2.170366   -0.029839
     47          1           0        6.346824    2.191499   -0.112978
     48          1           0        6.361574   -2.150201   -0.005956
     49          1           0        3.925014   -2.141478    0.075718
     50          6           0        8.685382    1.280513   -0.185956
     51          6           0        8.693844   -1.228146   -0.124189
     52          1           0        8.491668    1.917745    0.696229
     53          1           0        8.422404    1.868758   -1.084316
     54          1           0        9.762669    1.077961   -0.222194
     55          1           0        8.432484   -1.862719   -0.990876
     56          1           0        8.506737   -1.821220    0.789689
     57          1           0        9.769630   -1.020470   -0.173730
 ---------------------------------------------------------------------

 SCF Done:  E(RM062X) =  -2157.02071509     A.U. after   16 cycles

 The electronic state is 1-A.
 Alpha  occ. eigenvalues --  -25.29735 -25.29731 -25.29257 -25.29247 -25.29039
 Alpha  occ. eigenvalues --  -25.29031 -25.28760 -25.28759 -14.84824 -14.84823
 Alpha  occ. eigenvalues --  -14.77893 -10.82480 -10.82480 -10.67911 -10.67909
 Alpha  occ. eigenvalues --  -10.65109 -10.65106 -10.63933 -10.63924 -10.61407
 Alpha  occ. eigenvalues --  -10.61402 -10.60979 -10.60978 -10.60083 -10.59783
 Alpha  occ. eigenvalues --  -10.59779 -10.58833 -10.58831 -10.58355 -10.58349
 Alpha  occ. eigenvalues --  -10.58267 -10.57812 -10.56416 -10.55968 -10.55964
 Alpha  occ. eigenvalues --  -10.55185 -10.55184 -10.52195 -10.51725  -4.09007
 Alpha  occ. eigenvalues --   -2.28474  -2.28442  -2.25362  -1.45399  -1.45398
 Alpha  occ. eigenvalues --   -1.37452  -1.37401  -1.35958  -1.35956  -1.35430
 Alpha  occ. eigenvalues --   -1.35428  -1.10213  -1.09783  -1.04845  -0.99030
 Alpha  occ. eigenvalues --   -0.95211  -0.95115  -0.94166  -0.92666  -0.91364
 Alpha  occ. eigenvalues --   -0.86874  -0.86824  -0.85255  -0.83580  -0.82050
 Alpha  occ. eigenvalues --   -0.81519  -0.80259  -0.78768  -0.77013  -0.76878
 Alpha  occ. eigenvalues --   -0.75735  -0.75522  -0.73556  -0.72319  -0.71645
 Alpha  occ. eigenvalues --   -0.69935  -0.69887  -0.69883  -0.69643  -0.69070
 Alpha  occ. eigenvalues --   -0.68561  -0.67797  -0.66575  -0.65495  -0.64248
 Alpha  occ. eigenvalues --   -0.63611  -0.61825  -0.60946  -0.60304  -0.59915
 Alpha  occ. eigenvalues --   -0.59630  -0.58527  -0.58041  -0.58032  -0.57713
 Alpha  occ. eigenvalues --   -0.57689  -0.57175  -0.56352  -0.55613  -0.55558
 Alpha  occ. eigenvalues --   -0.55359  -0.55024  -0.54321  -0.54229  -0.54202
 Alpha  occ. eigenvalues --   -0.53669  -0.53405  -0.53385  -0.53003  -0.52864
 Alpha  occ. eigenvalues --   -0.52854  -0.52207  -0.51859  -0.51827  -0.51252
 Alpha  occ. eigenvalues --   -0.50891  -0.48911  -0.48642  -0.48491  -0.47946
 Alpha  occ. eigenvalues --   -0.47791  -0.46667  -0.46286  -0.45885  -0.45856
 Alpha  occ. eigenvalues --   -0.45393  -0.45191  -0.44518  -0.43914  -0.43595
 Alpha  occ. eigenvalues --   -0.42420  -0.41021  -0.39574  -0.39503  -0.39076
 Alpha  occ. eigenvalues --   -0.38492  -0.36986  -0.36413  -0.35854  -0.34076
 Alpha  occ. eigenvalues --   -0.32396  -0.31206  -0.31076  -0.30984  -0.29887
 Alpha  occ. eigenvalues --   -0.28899  -0.28460  -0.22728
 Alpha virt. eigenvalues --   -0.06536  -0.06275  -0.02468  -0.02212   0.00495
 Alpha virt. eigenvalues --    0.02634   0.02829   0.03552   0.03868   0.04520
 Alpha virt. eigenvalues --    0.04596   0.04629   0.09858   0.10401   0.10516

 Mulliken charges:
               1
     1  Pt   0.869791
     2  C   -0.543568
     3  N   -0.417609
     4  N   -0.417549
     5  C    0.168803
     6  C    0.168894
     7  C    0.171850
     8  C    0.171918
     9  C   -0.018418
    10  C   -0.018308
    11  C    0.295914
    12  C   -0.050118
    13  C    0.089089
    14  C   -0.201131
    15  C    0.295882
    16  C   -0.169505
    17  C   -0.049977
    18  C    0.088974
    19  H    0.061652
    20  C   -0.201062
    21  C   -0.371417
    22  F   -0.211353
    23  F   -0.211360
    24  H    0.081944
    25  C    0.660404
    26  H    0.076352
    27  H    0.082100
    28  C    0.660330
    29  H    0.061636
    30  H    0.076256
    31  C   -0.087578
    32  C   -0.033327
    33  C   -0.031665
    34  C   -0.031782
    35  C   -0.114152
    36  C   -0.114109
    37  C    0.205602
    38  N   -0.397304
    39  H    0.056133
    40  F   -0.200911
    41  F   -0.193454
    42  F   -0.200214
    43  F   -0.193369
    44  F   -0.200341
    45  F   -0.201074
    46  H    0.017769
    47  H    0.015571
    48  H    0.015563
    49  H    0.017754
    50  C    0.055202
    51  C    0.055217
    52  H    0.057391
    53  H    0.057167
    54  H    0.065464
    55  H    0.057201
    56  H    0.057359
    57  H    0.065472
 Sum of Mulliken charges =   0.00000

 Dipole moment (field-independent basis, Debye):
    X=             -4.4750    Y=             -0.0312    Z=             -0.4310  Tot=              4.4958
 Quadrupole moment (field-independent basis, Debye-Ang):
   XX=           -166.6200   YY=           -217.5416   ZZ=           -251.7672
   XY=              0.1528   XZ=             -1.2549   YZ=             -1.1090

  Exact polarizability: 783.055   0.268 628.686   2.707  -2.862 237.834
 Approx polarizability: 662.234   0.239 552.618   3.421  -2.653 249.249

 Normal termination of Gaussian 09 at Sat Feb  4 04:20:27 2023.
