 Gaussian 09, Revision D.01,
 Gaussian 09:  EM64L-G09RevD.01 24-Apr-2013

 ----------------------------------------------------------------------
 #p M06/gen gfinput pseudo=read Integral(Grid=UltraFine,Acc2E=12) scf=m
 axcycle=200 Polar=(DCSHG) CPHF=RdFreq scrf=(iefpcm,read,solvent=n,n-Di
 MethylFormamide)
 ----------------------------------------------------------------------

 ------------------------------
 Primeira Hiperpolarizabilidade
 ------------------------------
 Symbolic Z-matrix:
 Charge =  0 Multiplicity = 1

                         Standard orientation:
 ---------------------------------------------------------------------
 Center     Atomic      Atomic             Coordinates (Angstroms)
 Number     Number       Type             X           Y           Z
 ---------------------------------------------------------------------
      1         78           0       -1.008098   -0.002554    0.023564
      2          6           0        1.040778    0.006667    0.073725
      3          7           0       -1.351872   -2.030588    0.021851
      4          7           0       -1.371945    2.022246    0.008714
      5          6           0       -0.428755    2.975399    0.046602
      6          6           0       -0.398749   -2.973631    0.063676
      7          6           0       -2.709059    2.370497   -0.042286
      8          6           0       -2.685437   -2.392870   -0.022148
      9          6           0       -3.612802   -1.258328   -0.063032
     10          6           0       -3.625038    1.226485   -0.074159
     11          6           0       -5.026887    1.184638   -0.123314
     12          6           0       -3.072336    3.724957   -0.058798
     13          6           0       -2.092344    4.709726   -0.020417
     14          6           0       -0.744979    4.330839    0.035451
     15          6           0       -5.014989   -1.230646   -0.112194
     16          6           0       -5.723602   -0.026574   -0.142658
     17          6           0       -3.034925   -3.751150   -0.020208
     18          6           0       -2.044755   -4.725434    0.024916
     19          1           0       -4.086756   -4.028898   -0.051962
     20          6           0       -0.700943   -4.332187    0.066180
     21          6           0       -2.958548   -0.012536   -0.045884
     22          9           0       -5.721231   -2.369921   -0.130392
     23          9           0       -5.744306    2.316719   -0.152261
     24          1           0        0.628075   -2.608296    0.098527
     25          6           0        0.398456   -5.362280    0.086817
     26          1           0       -2.317869   -5.782506    0.030833
     27          1           0        0.601877    2.621014    0.083278
     28          6           0        0.341059    5.372771    0.108014
     29          1           0       -4.126636    3.991341   -0.102923
     30          1           0       -2.375743    5.763900   -0.037457
     31          6           0        2.277388    0.010047    0.060642
     32          6           0        3.707803    0.013889    0.028194
     33          6           0        4.447523    1.218101   -0.023999
     34          6           0        4.455580   -1.186484    0.034584
     35          6           0        5.837091    1.229508   -0.071927
     36          6           0        5.845235   -1.190853   -0.012570
     37          6           0        6.585491    0.021156   -0.070201
     38          7           0        7.961809    0.024529   -0.122795
     39          1           0       -6.813007   -0.032125   -0.180343
     40          9           0        0.164122    6.329015   -0.821111
     41          9           0        1.561974    4.845788   -0.078463
     42          9           0        0.351159    5.992134    1.303574
     43          9           0        1.600000   -4.815854    0.333542
     44          9           0        0.487574   -6.010889   -1.089708
     45          9           0        0.175966   -6.297350    1.027787
     46          1           0        3.910527    2.170366   -0.029839
     47          1           0        6.346824    2.191499   -0.112978
     48          1           0        6.361574   -2.150201   -0.005956
     49          1           0        3.925014   -2.141478    0.075718
     50          6           0        8.685382    1.280513   -0.185956
     51          6           0        8.693844   -1.228146   -0.124189
     52          1           0        8.491668    1.917745    0.696229
     53          1           0        8.422404    1.868758   -1.084316
     54          1           0        9.762669    1.077961   -0.222194
     55          1           0        8.432484   -1.862719   -0.990876
     56          1           0        8.506737   -1.821220    0.789689
     57          1           0        9.769630   -1.020470   -0.173730
 ---------------------------------------------------------------------

 SCF Done:  E(RM06) =  -2156.74254651     A.U. after   16 cycles

 The electronic state is 1-A.
 Alpha  occ. eigenvalues --  -24.83174 -24.83170 -24.82725 -24.82714 -24.82525
 Alpha  occ. eigenvalues --  -24.82516 -24.82134 -24.82131 -14.48101 -14.48100
 Alpha  occ. eigenvalues --  -14.41936 -10.52161 -10.52160 -10.37511 -10.37508
 Alpha  occ. eigenvalues --  -10.34498 -10.34495 -10.33241 -10.33232 -10.30821
 Alpha  occ. eigenvalues --  -10.30815 -10.30403 -10.30401 -10.29681 -10.29194
 Alpha  occ. eigenvalues --  -10.29189 -10.28281 -10.28279 -10.27880 -10.27871
 Alpha  occ. eigenvalues --  -10.27646 -10.26940 -10.26069 -10.25548 -10.25547
 Alpha  occ. eigenvalues --  -10.24749 -10.24748 -10.21859 -10.20979  -3.92116
 Alpha  occ. eigenvalues --   -2.15965  -2.15949  -2.12696  -1.35258  -1.35257
 Alpha  occ. eigenvalues --   -1.27875  -1.27838  -1.26691  -1.26689  -1.26182
 Alpha  occ. eigenvalues --   -1.26180  -1.00831  -1.00432  -0.95756  -0.90121
 Alpha  occ. eigenvalues --   -0.86603  -0.86540  -0.85422  -0.84080  -0.82829
 Alpha  occ. eigenvalues --   -0.78785  -0.78729  -0.76998  -0.75400  -0.74170
 Alpha  occ. eigenvalues --   -0.73674  -0.72146  -0.70585  -0.69655  -0.69459
 Alpha  occ. eigenvalues --   -0.68420  -0.68232  -0.66053  -0.65246  -0.64656
 Alpha  occ. eigenvalues --   -0.63163  -0.63106  -0.63102  -0.62895  -0.62063
 Alpha  occ. eigenvalues --   -0.61615  -0.60842  -0.60053  -0.58844  -0.57621
 Alpha  occ. eigenvalues --   -0.57217  -0.55777  -0.54510  -0.54221  -0.53845
 Alpha  occ. eigenvalues --   -0.52370  -0.51235  -0.51221  -0.50984  -0.50972
 Alpha  occ. eigenvalues --   -0.50771  -0.50761  -0.49869  -0.49664  -0.49581
 Alpha  occ. eigenvalues --   -0.49336  -0.48787  -0.47852  -0.47836  -0.47785
 Alpha  occ. eigenvalues --   -0.47608  -0.47193  -0.46753  -0.46526  -0.46514
 Alpha  occ. eigenvalues --   -0.46442  -0.46246  -0.45269  -0.45095  -0.44811
 Alpha  occ. eigenvalues --   -0.44805  -0.43729  -0.42996  -0.42904  -0.42503
 Alpha  occ. eigenvalues --   -0.42444  -0.41107  -0.41074  -0.40521  -0.40329
 Alpha  occ. eigenvalues --   -0.40224  -0.40144  -0.38986  -0.38779  -0.38606
 Alpha  occ. eigenvalues --   -0.37125  -0.36094  -0.34982  -0.34809  -0.34469
 Alpha  occ. eigenvalues --   -0.33320  -0.32402  -0.30949  -0.30746  -0.29755
 Alpha  occ. eigenvalues --   -0.27545  -0.27180  -0.26957  -0.25936  -0.25815
 Alpha  occ. eigenvalues --   -0.24364  -0.24318  -0.19585
 Alpha virt. eigenvalues --   -0.09225  -0.08811  -0.05592  -0.05248  -0.02499
 Alpha virt. eigenvalues --   -0.01292  -0.00541  -0.00274   0.00662   0.01080
 Alpha virt. eigenvalues --    0.01529   0.01590   0.06511   0.06618   0.07030

 Mulliken charges:
               1
     1  Pt   0.856449
     2  C   -0.521957
     3  N   -0.378250
     4  N   -0.378314
     5  C    0.176562
     6  C    0.176825
     7  C    0.164038
     8  C    0.164046
     9  C    0.017059
    10  C    0.017188
    11  C    0.275937
    12  C   -0.052924
    13  C    0.090274
    14  C   -0.186877
    15  C    0.275917
    16  C   -0.156487
    17  C   -0.052856
    18  C    0.089726
    19  H    0.052440
    20  C   -0.186318
    21  C   -0.421810
    22  F   -0.212733
    23  F   -0.212739
    24  H    0.064941
    25  C    0.630126
    26  H    0.068943
    27  H    0.065355
    28  C    0.630073
    29  H    0.052390
    30  H    0.068812
    31  C   -0.078025
    32  C   -0.028770
    33  C   -0.028591
    34  C   -0.028897
    35  C   -0.106228
    36  C   -0.106169
    37  C    0.198583
    38  N   -0.357498
    39  H    0.049743
    40  F   -0.196797
    41  F   -0.189345
    42  F   -0.195799
    43  F   -0.189281
    44  F   -0.195958
    45  F   -0.196926
    46  H    0.009147
    47  H    0.002512
    48  H    0.002500
    49  H    0.009312
    50  C    0.060188
    51  C    0.060245
    52  H    0.053602
    53  H    0.053391
    54  H    0.058124
    55  H    0.053413
    56  H    0.053560
    57  H    0.058127
 Sum of Mulliken charges =   0.00000

 Dipole moment (field-independent basis, Debye):
    X=             -4.1495    Y=             -0.0294    Z=             -0.4298  Tot=              4.1718
 Quadrupole moment (field-independent basis, Debye-Ang):
   XX=           -167.4054   YY=           -220.3011   ZZ=           -250.0606
   XY=              0.1606   XZ=             -1.2849   YZ=             -1.0613

  Exact polarizability: 885.499   0.350 683.436   2.891  -3.069 241.957
 Approx polarizability: 902.858   0.413 722.548   4.897  -3.558 286.584

 Normal termination of Gaussian 09 at Sat Feb  4 04:57:05 2023.
