 Gaussian 09, Revision D.01,
 Gaussian 09:  EM64L-G09RevD.01 24-Apr-2013

 ----------------------------------------------------------------------
 #p M06L/gen gfinput pseudo=read Integral(Grid=UltraFine,Acc2E=12) scf=
 maxcycle=200 Polar=(DCSHG) CPHF=RdFreq scrf=(iefpcm,read,solvent=n,n-D
 iMethylFormamide)
 ----------------------------------------------------------------------

 ------------------------------
 Primeira Hiperpolarizabilidade
 ------------------------------
 Symbolic Z-matrix:
 Charge =  0 Multiplicity = 1

                         Standard orientation:
 ---------------------------------------------------------------------
 Center     Atomic      Atomic             Coordinates (Angstroms)
 Number     Number       Type             X           Y           Z
 ---------------------------------------------------------------------
      1         78           0       -1.008098   -0.002554    0.023564
      2          6           0        1.040778    0.006667    0.073725
      3          7           0       -1.351872   -2.030588    0.021851
      4          7           0       -1.371945    2.022246    0.008714
      5          6           0       -0.428755    2.975399    0.046602
      6          6           0       -0.398749   -2.973631    0.063676
      7          6           0       -2.709059    2.370497   -0.042286
      8          6           0       -2.685437   -2.392870   -0.022148
      9          6           0       -3.612802   -1.258328   -0.063032
     10          6           0       -3.625038    1.226485   -0.074159
     11          6           0       -5.026887    1.184638   -0.123314
     12          6           0       -3.072336    3.724957   -0.058798
     13          6           0       -2.092344    4.709726   -0.020417
     14          6           0       -0.744979    4.330839    0.035451
     15          6           0       -5.014989   -1.230646   -0.112194
     16          6           0       -5.723602   -0.026574   -0.142658
     17          6           0       -3.034925   -3.751150   -0.020208
     18          6           0       -2.044755   -4.725434    0.024916
     19          1           0       -4.086756   -4.028898   -0.051962
     20          6           0       -0.700943   -4.332187    0.066180
     21          6           0       -2.958548   -0.012536   -0.045884
     22          9           0       -5.721231   -2.369921   -0.130392
     23          9           0       -5.744306    2.316719   -0.152261
     24          1           0        0.628075   -2.608296    0.098527
     25          6           0        0.398456   -5.362280    0.086817
     26          1           0       -2.317869   -5.782506    0.030833
     27          1           0        0.601877    2.621014    0.083278
     28          6           0        0.341059    5.372771    0.108014
     29          1           0       -4.126636    3.991341   -0.102923
     30          1           0       -2.375743    5.763900   -0.037457
     31          6           0        2.277388    0.010047    0.060642
     32          6           0        3.707803    0.013889    0.028194
     33          6           0        4.447523    1.218101   -0.023999
     34          6           0        4.455580   -1.186484    0.034584
     35          6           0        5.837091    1.229508   -0.071927
     36          6           0        5.845235   -1.190853   -0.012570
     37          6           0        6.585491    0.021156   -0.070201
     38          7           0        7.961809    0.024529   -0.122795
     39          1           0       -6.813007   -0.032125   -0.180343
     40          9           0        0.164122    6.329015   -0.821111
     41          9           0        1.561974    4.845788   -0.078463
     42          9           0        0.351159    5.992134    1.303574
     43          9           0        1.600000   -4.815854    0.333542
     44          9           0        0.487574   -6.010889   -1.089708
     45          9           0        0.175966   -6.297350    1.027787
     46          1           0        3.910527    2.170366   -0.029839
     47          1           0        6.346824    2.191499   -0.112978
     48          1           0        6.361574   -2.150201   -0.005956
     49          1           0        3.925014   -2.141478    0.075718
     50          6           0        8.685382    1.280513   -0.185956
     51          6           0        8.693844   -1.228146   -0.124189
     52          1           0        8.491668    1.917745    0.696229
     53          1           0        8.422404    1.868758   -1.084316
     54          1           0        9.762669    1.077961   -0.222194
     55          1           0        8.432484   -1.862719   -0.990876
     56          1           0        8.506737   -1.821220    0.789689
     57          1           0        9.769630   -1.020470   -0.173730
 ---------------------------------------------------------------------

 SCF Done:  E(RM06L) =  -2157.70291452     A.U. after   16 cycles

 The electronic state is 1-A.
 Alpha  occ. eigenvalues --  -24.55007 -24.55003 -24.54594 -24.54584 -24.54423
 Alpha  occ. eigenvalues --  -24.54416 -24.54226 -24.54224 -14.26185 -14.26184
 Alpha  occ. eigenvalues --  -14.20854 -10.32244 -10.32243 -10.17830 -10.17829
 Alpha  occ. eigenvalues --  -10.14852 -10.14849 -10.13753 -10.13744 -10.11279
 Alpha  occ. eigenvalues --  -10.11274 -10.11155 -10.11153 -10.10519 -10.10063
 Alpha  occ. eigenvalues --  -10.10059 -10.09355 -10.09350 -10.09112 -10.09111
 Alpha  occ. eigenvalues --  -10.08587 -10.07410 -10.07211 -10.06535 -10.06534
 Alpha  occ. eigenvalues --  -10.05935 -10.05934 -10.02857 -10.01948  -3.85116
 Alpha  occ. eigenvalues --   -2.10144  -2.09875  -2.06661  -1.28452  -1.28451
 Alpha  occ. eigenvalues --   -1.21436  -1.21396  -1.20106  -1.20105  -1.19636
 Alpha  occ. eigenvalues --   -1.19634  -0.95479  -0.95100  -0.90988  -0.84763
 Alpha  occ. eigenvalues --   -0.81294  -0.81249  -0.80474  -0.78914  -0.77624
 Alpha  occ. eigenvalues --   -0.73462  -0.73461  -0.72305  -0.70620  -0.68513
 Alpha  occ. eigenvalues --   -0.67978  -0.67498  -0.65906  -0.64231  -0.63733
 Alpha  occ. eigenvalues --   -0.63215  -0.62432  -0.61424  -0.59663  -0.59022
 Alpha  occ. eigenvalues --   -0.56598  -0.56414  -0.56354  -0.56347  -0.56224
 Alpha  occ. eigenvalues --   -0.56054  -0.55574  -0.54522  -0.54044  -0.51886
 Alpha  occ. eigenvalues --   -0.51762  -0.49906  -0.49634  -0.48851  -0.48288
 Alpha  occ. eigenvalues --   -0.46746  -0.45941  -0.45022  -0.44988  -0.44590
 Alpha  occ. eigenvalues --   -0.44544  -0.44071  -0.43827  -0.43662  -0.43644
 Alpha  occ. eigenvalues --   -0.43362  -0.43177  -0.42763  -0.42420  -0.42375
 Alpha  occ. eigenvalues --   -0.42305  -0.41295  -0.41292  -0.40723  -0.40217
 Alpha  occ. eigenvalues --   -0.39855  -0.39825  -0.39615  -0.39568  -0.39272
 Alpha  occ. eigenvalues --   -0.38275  -0.37767  -0.37762  -0.37456  -0.37176
 Alpha  occ. eigenvalues --   -0.36770  -0.36746  -0.36264  -0.35587  -0.35384
 Alpha  occ. eigenvalues --   -0.35270  -0.34806  -0.34648  -0.34302  -0.34241
 Alpha  occ. eigenvalues --   -0.32501  -0.31887  -0.30946  -0.30512  -0.30474
 Alpha  occ. eigenvalues --   -0.29130  -0.28495  -0.27053  -0.26431  -0.25714
 Alpha  occ. eigenvalues --   -0.23889  -0.23593  -0.23520  -0.21917  -0.21508
 Alpha  occ. eigenvalues --   -0.20703  -0.20393  -0.16473
 Alpha virt. eigenvalues --   -0.11308  -0.10730  -0.08115  -0.07710  -0.04458
 Alpha virt. eigenvalues --   -0.04084  -0.03188  -0.02601  -0.01454   0.02158
 Alpha virt. eigenvalues --    0.03687   0.03756   0.04428   0.04990   0.05963

 Mulliken charges:
               1
     1  Pt   1.008877
     2  C   -0.539085
     3  N   -0.470755
     4  N   -0.470680
     5  C    0.212447
     6  C    0.212835
     7  C    0.236741
     8  C    0.236894
     9  C   -0.055734
    10  C   -0.055561
    11  C    0.335933
    12  C   -0.100012
    13  C    0.081038
    14  C   -0.276728
    15  C    0.335891
    16  C   -0.214159
    17  C   -0.100071
    18  C    0.080849
    19  H    0.076664
    20  C   -0.276650
    21  C   -0.417814
    22  F   -0.231942
    23  F   -0.231964
    24  H    0.081230
    25  C    0.768292
    26  H    0.082947
    27  H    0.081468
    28  C    0.768027
    29  H    0.076662
    30  H    0.082901
    31  C   -0.085404
    32  C   -0.085630
    33  C   -0.029719
    34  C   -0.030061
    35  C   -0.146415
    36  C   -0.146397
    37  C    0.262601
    38  N   -0.434898
    39  H    0.078912
    40  F   -0.221987
    41  F   -0.215233
    42  F   -0.221430
    43  F   -0.215219
    44  F   -0.221585
    45  F   -0.222195
    46  H    0.028373
    47  H    0.028257
    48  H    0.028248
    49  H    0.028561
    50  C    0.054930
    51  C    0.054984
    52  H    0.063303
    53  H    0.063110
    54  H    0.069975
    55  H    0.063106
    56  H    0.063289
    57  H    0.069983
 Sum of Mulliken charges =   0.00000

 Dipole moment (field-independent basis, Debye):
    X=             -2.8843    Y=             -0.0257    Z=             -0.4313  Tot=              2.9165
 Quadrupole moment (field-independent basis, Debye-Ang):
   XX=           -161.7023   YY=           -222.0177   ZZ=           -248.9669
   XY=              0.1814   XZ=             -1.3980   YZ=             -0.9450

  Exact polarizability:1058.836   0.808 727.277   2.281  -3.088 242.184
 Approx polarizability:1437.695   1.151 999.277   6.581  -4.899 315.490

 Normal termination of Gaussian 09 at Sat Feb  4 05:27:49 2023.
