 Gaussian 09, Revision D.01,
 Gaussian 09:  EM64L-G09RevD.01 24-Apr-2013

 ----------------------------------------------------------------------
 #p M11/gen gfinput pseudo=read Integral(Grid=UltraFine,Acc2E=12) scf=m
 axcycle=200 Polar=(DCSHG) CPHF=RdFreq scrf=(iefpcm,read,solvent=n,n-Di
 MethylFormamide)
 ----------------------------------------------------------------------

 ------------------------------
 Primeira Hiperpolarizabilidade
 ------------------------------
 Symbolic Z-matrix:
 Charge =  0 Multiplicity = 1

                         Standard orientation:
 ---------------------------------------------------------------------
 Center     Atomic      Atomic             Coordinates (Angstroms)
 Number     Number       Type             X           Y           Z
 ---------------------------------------------------------------------
      1         78           0       -1.008098   -0.002554    0.023564
      2          6           0        1.040778    0.006667    0.073725
      3          7           0       -1.351872   -2.030588    0.021851
      4          7           0       -1.371945    2.022246    0.008714
      5          6           0       -0.428755    2.975399    0.046602
      6          6           0       -0.398749   -2.973631    0.063676
      7          6           0       -2.709059    2.370497   -0.042286
      8          6           0       -2.685437   -2.392870   -0.022148
      9          6           0       -3.612802   -1.258328   -0.063032
     10          6           0       -3.625038    1.226485   -0.074159
     11          6           0       -5.026887    1.184638   -0.123314
     12          6           0       -3.072336    3.724957   -0.058798
     13          6           0       -2.092344    4.709726   -0.020417
     14          6           0       -0.744979    4.330839    0.035451
     15          6           0       -5.014989   -1.230646   -0.112194
     16          6           0       -5.723602   -0.026574   -0.142658
     17          6           0       -3.034925   -3.751150   -0.020208
     18          6           0       -2.044755   -4.725434    0.024916
     19          1           0       -4.086756   -4.028898   -0.051962
     20          6           0       -0.700943   -4.332187    0.066180
     21          6           0       -2.958548   -0.012536   -0.045884
     22          9           0       -5.721231   -2.369921   -0.130392
     23          9           0       -5.744306    2.316719   -0.152261
     24          1           0        0.628075   -2.608296    0.098527
     25          6           0        0.398456   -5.362280    0.086817
     26          1           0       -2.317869   -5.782506    0.030833
     27          1           0        0.601877    2.621014    0.083278
     28          6           0        0.341059    5.372771    0.108014
     29          1           0       -4.126636    3.991341   -0.102923
     30          1           0       -2.375743    5.763900   -0.037457
     31          6           0        2.277388    0.010047    0.060642
     32          6           0        3.707803    0.013889    0.028194
     33          6           0        4.447523    1.218101   -0.023999
     34          6           0        4.455580   -1.186484    0.034584
     35          6           0        5.837091    1.229508   -0.071927
     36          6           0        5.845235   -1.190853   -0.012570
     37          6           0        6.585491    0.021156   -0.070201
     38          7           0        7.961809    0.024529   -0.122795
     39          1           0       -6.813007   -0.032125   -0.180343
     40          9           0        0.164122    6.329015   -0.821111
     41          9           0        1.561974    4.845788   -0.078463
     42          9           0        0.351159    5.992134    1.303574
     43          9           0        1.600000   -4.815854    0.333542
     44          9           0        0.487574   -6.010889   -1.089708
     45          9           0        0.175966   -6.297350    1.027787
     46          1           0        3.910527    2.170366   -0.029839
     47          1           0        6.346824    2.191499   -0.112978
     48          1           0        6.361574   -2.150201   -0.005956
     49          1           0        3.925014   -2.141478    0.075718
     50          6           0        8.685382    1.280513   -0.185956
     51          6           0        8.693844   -1.228146   -0.124189
     52          1           0        8.491668    1.917745    0.696229
     53          1           0        8.422404    1.868758   -1.084316
     54          1           0        9.762669    1.077961   -0.222194
     55          1           0        8.432484   -1.862719   -0.990876
     56          1           0        8.506737   -1.821220    0.789689
     57          1           0        9.769630   -1.020470   -0.173730
 ---------------------------------------------------------------------

 SCF Done:  E(RM11) =  -2156.78409630     A.U. after   17 cycles

 The electronic state is 1-A.
 Alpha  occ. eigenvalues --  -25.09486 -25.09481 -25.08978 -25.08966 -25.08751
 Alpha  occ. eigenvalues --  -25.08741 -25.08568 -25.08565 -14.70441 -14.70440
 Alpha  occ. eigenvalues --  -14.63224 -10.71184 -10.71184 -10.56787 -10.56786
 Alpha  occ. eigenvalues --  -10.54077 -10.54074 -10.52811 -10.52802 -10.50346
 Alpha  occ. eigenvalues --  -10.50341 -10.49923 -10.49921 -10.49026 -10.48632
 Alpha  occ. eigenvalues --  -10.48628 -10.47673 -10.47672 -10.47016 -10.46857
 Alpha  occ. eigenvalues --  -10.46853 -10.46849 -10.45430 -10.44915 -10.44914
 Alpha  occ. eigenvalues --  -10.44054 -10.44053 -10.41608 -10.41394  -4.07511
 Alpha  occ. eigenvalues --   -2.29940  -2.29670  -2.25375  -1.45460  -1.45459
 Alpha  occ. eigenvalues --   -1.37043  -1.36970  -1.35146  -1.35144  -1.34599
 Alpha  occ. eigenvalues --   -1.34597  -1.13890  -1.13457  -1.08220  -1.03143
 Alpha  occ. eigenvalues --   -0.99361  -0.99224  -0.98469  -0.96956  -0.95716
 Alpha  occ. eigenvalues --   -0.90999  -0.90958  -0.89689  -0.88083  -0.85854
 Alpha  occ. eigenvalues --   -0.85304  -0.84896  -0.83218  -0.81364  -0.80949
 Alpha  occ. eigenvalues --   -0.80122  -0.79683  -0.78012  -0.76520  -0.75919
 Alpha  occ. eigenvalues --   -0.73866  -0.73709  -0.73614  -0.73600  -0.73354
 Alpha  occ. eigenvalues --   -0.72877  -0.72443  -0.70914  -0.69966  -0.68732
 Alpha  occ. eigenvalues --   -0.68033  -0.65997  -0.65778  -0.64795  -0.64353
 Alpha  occ. eigenvalues --   -0.63783  -0.62447  -0.61901  -0.61719  -0.61697
 Alpha  occ. eigenvalues --   -0.61462  -0.61432  -0.60623  -0.60134  -0.60053
 Alpha  occ. eigenvalues --   -0.59892  -0.59490  -0.58660  -0.58569  -0.58472
 Alpha  occ. eigenvalues --   -0.58344  -0.57755  -0.57211  -0.57110  -0.57099
 Alpha  occ. eigenvalues --   -0.56905  -0.56616  -0.55907  -0.55507  -0.55369
 Alpha  occ. eigenvalues --   -0.55362  -0.53537  -0.53141  -0.52646  -0.52322
 Alpha  occ. eigenvalues --   -0.52107  -0.51417  -0.50754  -0.50720  -0.50371
 Alpha  occ. eigenvalues --   -0.49735  -0.49680  -0.49653  -0.48583  -0.48091
 Alpha  occ. eigenvalues --   -0.46866  -0.45771  -0.44109  -0.44101  -0.43657
 Alpha  occ. eigenvalues --   -0.43229  -0.41574  -0.41275  -0.40265  -0.38618
 Alpha  occ. eigenvalues --   -0.36537  -0.35699  -0.35594  -0.35496  -0.33897
 Alpha  occ. eigenvalues --   -0.33467  -0.32432  -0.26568
 Alpha virt. eigenvalues --   -0.02714  -0.02493   0.01722   0.01739   0.03291
 Alpha virt. eigenvalues --    0.05718   0.06026   0.06314   0.06777   0.06946
 Alpha virt. eigenvalues --    0.08140   0.08929   0.13519   0.14180   0.14555

 Mulliken charges:
               1
     1  Pt   0.833572
     2  C   -0.652984
     3  N   -0.336137
     4  N   -0.336109
     5  C    0.127977
     6  C    0.128173
     7  C    0.157611
     8  C    0.157642
     9  C   -0.006270
    10  C   -0.006133
    11  C    0.256415
    12  C   -0.102165
    13  C    0.068353
    14  C   -0.220147
    15  C    0.256389
    16  C   -0.222655
    17  C   -0.102039
    18  C    0.068150
    19  H    0.094315
    20  C   -0.219935
    21  C   -0.417772
    22  F   -0.169841
    23  F   -0.169851
    24  H    0.112280
    25  C    0.586557
    26  H    0.108066
    27  H    0.112549
    28  C    0.586627
    29  H    0.094306
    30  H    0.107951
    31  C    0.003467
    32  C   -0.046230
    33  C   -0.064442
    34  C   -0.064482
    35  C   -0.157747
    36  C   -0.157681
    37  C    0.205807
    38  N   -0.335111
    39  H    0.093818
    40  F   -0.171072
    41  F   -0.162733
    42  F   -0.170592
    43  F   -0.162603
    44  F   -0.170685
    45  F   -0.171204
    46  H    0.051640
    47  H    0.049348
    48  H    0.049335
    49  H    0.051530
    50  C   -0.009698
    51  C   -0.009670
    52  H    0.073024
    53  H    0.072806
    54  H    0.081221
    55  H    0.072836
    56  H    0.072998
    57  H    0.081223
 Sum of Mulliken charges =   0.00000

 Dipole moment (field-independent basis, Debye):
    X=             -4.4763    Y=             -0.0313    Z=             -0.4360  Tot=              4.4976
 Quadrupole moment (field-independent basis, Debye-Ang):
   XX=           -164.8885   YY=           -214.4967   ZZ=           -251.4699
   XY=              0.1458   XZ=             -1.2639   YZ=             -1.1205

  Exact polarizability: 754.850   0.269 619.407   2.413  -2.787 250.817
 Approx polarizability: 522.863   0.157 449.372   2.698  -2.070 220.029

 Normal termination of Gaussian 09 at Sat Feb  4 06:00:09 2023.
