 Gaussian 09, Revision D.01,
 Gaussian 09:  EM64L-G09RevD.01 24-Apr-2013

 ----------------------------------------------------------------------
 #p M11L/gen gfinput pseudo=read Integral(Grid=UltraFine,Acc2E=12) scf=
 maxcycle=200 Polar=(DCSHG) CPHF=RdFreq scrf=(iefpcm,read,solvent=n,n-D
 iMethylFormamide)
 ----------------------------------------------------------------------

 ------------------------------
 Primeira Hiperpolarizabilidade
 ------------------------------
 Symbolic Z-matrix:
 Charge =  0 Multiplicity = 1

                         Standard orientation:
 ---------------------------------------------------------------------
 Center     Atomic      Atomic             Coordinates (Angstroms)
 Number     Number       Type             X           Y           Z
 ---------------------------------------------------------------------
      1         78           0       -1.008098   -0.002554    0.023564
      2          6           0        1.040778    0.006667    0.073725
      3          7           0       -1.351872   -2.030588    0.021851
      4          7           0       -1.371945    2.022246    0.008714
      5          6           0       -0.428755    2.975399    0.046602
      6          6           0       -0.398749   -2.973631    0.063676
      7          6           0       -2.709059    2.370497   -0.042286
      8          6           0       -2.685437   -2.392870   -0.022148
      9          6           0       -3.612802   -1.258328   -0.063032
     10          6           0       -3.625038    1.226485   -0.074159
     11          6           0       -5.026887    1.184638   -0.123314
     12          6           0       -3.072336    3.724957   -0.058798
     13          6           0       -2.092344    4.709726   -0.020417
     14          6           0       -0.744979    4.330839    0.035451
     15          6           0       -5.014989   -1.230646   -0.112194
     16          6           0       -5.723602   -0.026574   -0.142658
     17          6           0       -3.034925   -3.751150   -0.020208
     18          6           0       -2.044755   -4.725434    0.024916
     19          1           0       -4.086756   -4.028898   -0.051962
     20          6           0       -0.700943   -4.332187    0.066180
     21          6           0       -2.958548   -0.012536   -0.045884
     22          9           0       -5.721231   -2.369921   -0.130392
     23          9           0       -5.744306    2.316719   -0.152261
     24          1           0        0.628075   -2.608296    0.098527
     25          6           0        0.398456   -5.362280    0.086817
     26          1           0       -2.317869   -5.782506    0.030833
     27          1           0        0.601877    2.621014    0.083278
     28          6           0        0.341059    5.372771    0.108014
     29          1           0       -4.126636    3.991341   -0.102923
     30          1           0       -2.375743    5.763900   -0.037457
     31          6           0        2.277388    0.010047    0.060642
     32          6           0        3.707803    0.013889    0.028194
     33          6           0        4.447523    1.218101   -0.023999
     34          6           0        4.455580   -1.186484    0.034584
     35          6           0        5.837091    1.229508   -0.071927
     36          6           0        5.845235   -1.190853   -0.012570
     37          6           0        6.585491    0.021156   -0.070201
     38          7           0        7.961809    0.024529   -0.122795
     39          1           0       -6.813007   -0.032125   -0.180343
     40          9           0        0.164122    6.329015   -0.821111
     41          9           0        1.561974    4.845788   -0.078463
     42          9           0        0.351159    5.992134    1.303574
     43          9           0        1.600000   -4.815854    0.333542
     44          9           0        0.487574   -6.010889   -1.089708
     45          9           0        0.175966   -6.297350    1.027787
     46          1           0        3.910527    2.170366   -0.029839
     47          1           0        6.346824    2.191499   -0.112978
     48          1           0        6.361574   -2.150201   -0.005956
     49          1           0        3.925014   -2.141478    0.075718
     50          6           0        8.685382    1.280513   -0.185956
     51          6           0        8.693844   -1.228146   -0.124189
     52          1           0        8.491668    1.917745    0.696229
     53          1           0        8.422404    1.868758   -1.084316
     54          1           0        9.762669    1.077961   -0.222194
     55          1           0        8.432484   -1.862719   -0.990876
     56          1           0        8.506737   -1.821220    0.789689
     57          1           0        9.769630   -1.020470   -0.173730
 ---------------------------------------------------------------------

 SCF Done:  E(RM11L) =  -2156.94445005     A.U. after   16 cycles

 The electronic state is 1-A.
 Alpha  occ. eigenvalues --  -25.01521 -25.01517 -25.01089 -25.01078 -25.00890
 Alpha  occ. eigenvalues --  -25.00882 -25.00585 -25.00584 -14.62418 -14.62416
 Alpha  occ. eigenvalues --  -14.57789 -10.63686 -10.63686 -10.49181 -10.49181
 Alpha  occ. eigenvalues --  -10.46033 -10.46031 -10.44782 -10.44774 -10.42217
 Alpha  occ. eigenvalues --  -10.42212 -10.41877 -10.41875 -10.41606 -10.40686
 Alpha  occ. eigenvalues --  -10.40681 -10.40091 -10.40089 -10.39970 -10.39970
 Alpha  occ. eigenvalues --  -10.39324 -10.38688 -10.38216 -10.37405 -10.37404
 Alpha  occ. eigenvalues --  -10.36774 -10.36772 -10.33883 -10.33067  -3.97568
 Alpha  occ. eigenvalues --   -2.17725  -2.17679  -2.15652  -1.36257  -1.36256
 Alpha  occ. eigenvalues --   -1.29957  -1.29934  -1.29120  -1.29118  -1.28631
 Alpha  occ. eigenvalues --   -1.28629  -0.99264  -0.98971  -0.94804  -0.88023
 Alpha  occ. eigenvalues --   -0.84424  -0.84368  -0.83543  -0.82070  -0.80694
 Alpha  occ. eigenvalues --   -0.76621  -0.76543  -0.75382  -0.73294  -0.71893
 Alpha  occ. eigenvalues --   -0.71401  -0.69646  -0.69411  -0.66856  -0.66595
 Alpha  occ. eigenvalues --   -0.65647  -0.65274  -0.64178  -0.62334  -0.61753
 Alpha  occ. eigenvalues --   -0.59380  -0.59242  -0.59210  -0.59207  -0.58233
 Alpha  occ. eigenvalues --   -0.57831  -0.57522  -0.56760  -0.56411  -0.53893
 Alpha  occ. eigenvalues --   -0.53891  -0.52370  -0.51089  -0.50977  -0.50566
 Alpha  occ. eigenvalues --   -0.48729  -0.48035  -0.47016  -0.46998  -0.46880
 Alpha  occ. eigenvalues --   -0.46682  -0.46671  -0.46664  -0.46199  -0.46023
 Alpha  occ. eigenvalues --   -0.45365  -0.45093  -0.44171  -0.43756  -0.43718
 Alpha  occ. eigenvalues --   -0.43663  -0.43425  -0.43149  -0.42765  -0.42604
 Alpha  occ. eigenvalues --   -0.42591  -0.42581  -0.41873  -0.41642  -0.41178
 Alpha  occ. eigenvalues --   -0.41174  -0.41164  -0.39601  -0.39345  -0.39324
 Alpha  occ. eigenvalues --   -0.39102  -0.37775  -0.37367  -0.37235  -0.37069
 Alpha  occ. eigenvalues --   -0.36804  -0.36451  -0.36033  -0.35564  -0.35189
 Alpha  occ. eigenvalues --   -0.33984  -0.33027  -0.32081  -0.31764  -0.31632
 Alpha  occ. eigenvalues --   -0.30281  -0.29710  -0.28293  -0.28042  -0.27745
 Alpha  occ. eigenvalues --   -0.25414  -0.24758  -0.24693  -0.23687  -0.22677
 Alpha  occ. eigenvalues --   -0.22198  -0.21980  -0.17804
 Alpha virt. eigenvalues --   -0.12558  -0.12250  -0.09599  -0.09199  -0.06209
 Alpha virt. eigenvalues --   -0.05485  -0.04858  -0.04331  -0.03511  -0.03035
 Alpha virt. eigenvalues --   -0.02964  -0.02884   0.01910   0.02158   0.02440

 Mulliken charges:
               1
     1  Pt   1.372272
     2  C   -0.606178
     3  N   -0.789624
     4  N   -0.789488
     5  C    0.361129
     6  C    0.361486
     7  C    0.326490
     8  C    0.326586
     9  C   -0.195642
    10  C   -0.195493
    11  C    0.519010
    12  C   -0.084567
    13  C    0.124219
    14  C   -0.460802
    15  C    0.519007
    16  C   -0.240035
    17  C   -0.084399
    18  C    0.123964
    19  H    0.100491
    20  C   -0.460937
    21  C   -0.424518
    22  F   -0.340324
    23  F   -0.340346
    24  H    0.114074
    25  C    1.081015
    26  H    0.107226
    27  H    0.114233
    28  C    1.080768
    29  H    0.100527
    30  H    0.107147
    31  C   -0.122905
    32  C   -0.154448
    33  C   -0.006178
    34  C   -0.006316
    35  C   -0.148897
    36  C   -0.148889
    37  C    0.307296
    38  N   -0.658984
    39  H    0.103886
    40  F   -0.307159
    41  F   -0.304875
    42  F   -0.306587
    43  F   -0.304926
    44  F   -0.306668
    45  F   -0.307274
    46  H    0.060811
    47  H    0.051802
    48  H    0.051795
    49  H    0.060822
    50  C    0.067061
    51  C    0.067075
    52  H    0.078231
    53  H    0.077994
    54  H    0.086906
    55  H    0.078019
    56  H    0.078213
    57  H    0.086903
 Sum of Mulliken charges =   0.00000

 Dipole moment (field-independent basis, Debye):
    X=             -3.3894    Y=             -0.0271    Z=             -0.4408  Tot=              3.4180
 Quadrupole moment (field-independent basis, Debye-Ang):
   XX=           -163.8338   YY=           -225.5699   ZZ=           -252.5929
   XY=              0.1908   XZ=             -1.4113   YZ=             -0.9954

  Exact polarizability:1035.025   0.722 733.829   2.392  -3.164 254.731
 Approx polarizability:1369.291   0.994 982.381   5.942  -4.961 333.913

 Normal termination of Gaussian 09 at Sat Feb  4 06:29:02 2023.
