 Gaussian 16, Revision C.01,
 Gaussian 16:  EM64L-G16RevC.01  3-Jul-2019

 ----------------------------------------------------------------------
 #p MN12L/gen gfinput pseudo=read scf=maxcycle=200 Polar=(DCSHG) CPHF=R
 dFreq scrf=(iefpcm,read,solvent=n,n-DiMethylFormamide)
 ----------------------------------------------------------------------

 ------------------------------
 Primeira Hiperpolarizabilidade
 ------------------------------
 Symbolic Z-matrix:
 Charge =  0 Multiplicity = 1

                         Standard orientation:
 ---------------------------------------------------------------------
 Center     Atomic      Atomic             Coordinates (Angstroms)
 Number     Number       Type             X           Y           Z
 ---------------------------------------------------------------------
      1         78           0       -1.008098   -0.002554    0.023564
      2          6           0        1.040778    0.006667    0.073725
      3          7           0       -1.351872   -2.030588    0.021851
      4          7           0       -1.371945    2.022246    0.008714
      5          6           0       -0.428755    2.975399    0.046602
      6          6           0       -0.398749   -2.973631    0.063676
      7          6           0       -2.709059    2.370497   -0.042286
      8          6           0       -2.685437   -2.392870   -0.022148
      9          6           0       -3.612802   -1.258328   -0.063032
     10          6           0       -3.625038    1.226485   -0.074159
     11          6           0       -5.026887    1.184638   -0.123314
     12          6           0       -3.072336    3.724957   -0.058798
     13          6           0       -2.092344    4.709726   -0.020417
     14          6           0       -0.744979    4.330839    0.035451
     15          6           0       -5.014989   -1.230646   -0.112194
     16          6           0       -5.723602   -0.026574   -0.142658
     17          6           0       -3.034925   -3.751150   -0.020208
     18          6           0       -2.044755   -4.725434    0.024916
     19          1           0       -4.086756   -4.028898   -0.051962
     20          6           0       -0.700943   -4.332187    0.066180
     21          6           0       -2.958548   -0.012536   -0.045884
     22          9           0       -5.721231   -2.369921   -0.130392
     23          9           0       -5.744306    2.316719   -0.152261
     24          1           0        0.628075   -2.608296    0.098527
     25          6           0        0.398456   -5.362280    0.086817
     26          1           0       -2.317869   -5.782506    0.030833
     27          1           0        0.601877    2.621014    0.083278
     28          6           0        0.341059    5.372771    0.108014
     29          1           0       -4.126636    3.991341   -0.102923
     30          1           0       -2.375743    5.763900   -0.037457
     31          6           0        2.277388    0.010047    0.060642
     32          6           0        3.707803    0.013889    0.028194
     33          6           0        4.447523    1.218101   -0.023999
     34          6           0        4.455580   -1.186484    0.034584
     35          6           0        5.837091    1.229508   -0.071927
     36          6           0        5.845235   -1.190853   -0.012570
     37          6           0        6.585491    0.021156   -0.070201
     38          7           0        7.961809    0.024529   -0.122795
     39          1           0       -6.813007   -0.032125   -0.180343
     40          9           0        0.164122    6.329015   -0.821111
     41          9           0        1.561974    4.845788   -0.078463
     42          9           0        0.351159    5.992134    1.303574
     43          9           0        1.600000   -4.815854    0.333542
     44          9           0        0.487574   -6.010889   -1.089708
     45          9           0        0.175966   -6.297350    1.027787
     46          1           0        3.910527    2.170366   -0.029839
     47          1           0        6.346824    2.191499   -0.112978
     48          1           0        6.361574   -2.150201   -0.005956
     49          1           0        3.925014   -2.141478    0.075718
     50          6           0        8.685382    1.280513   -0.185956
     51          6           0        8.693844   -1.228146   -0.124189
     52          1           0        8.491668    1.917745    0.696229
     53          1           0        8.422404    1.868758   -1.084316
     54          1           0        9.762669    1.077961   -0.222194
     55          1           0        8.432484   -1.862719   -0.990876
     56          1           0        8.506737   -1.821220    0.789689
     57          1           0        9.769630   -1.020470   -0.173730
 ---------------------------------------------------------------------

 SCF Done:  E(RMN12L) =  -2155.42558036     A.U. after   16 cycles

 The electronic state is 1-A.
 Alpha  occ. eigenvalues --  -25.30382 -25.30378 -25.29931 -25.29920 -25.29717
 Alpha  occ. eigenvalues --  -25.29707 -25.29369 -25.29367 -14.81457 -14.81456
 Alpha  occ. eigenvalues --  -14.74960 -10.78446 -10.78445 -10.63743 -10.63742
 Alpha  occ. eigenvalues --  -10.60985 -10.60983 -10.59977 -10.59968 -10.57007
 Alpha  occ. eigenvalues --  -10.57002 -10.56642 -10.56640 -10.56526 -10.55523
 Alpha  occ. eigenvalues --  -10.55518 -10.54725 -10.54724 -10.54436 -10.54433
 Alpha  occ. eigenvalues --  -10.54044 -10.53241 -10.52989 -10.52195 -10.52194
 Alpha  occ. eigenvalues --  -10.51441 -10.51440 -10.49066 -10.48453  -3.99840
 Alpha  occ. eigenvalues --   -2.18930  -2.18051  -2.15291  -1.32996  -1.32996
 Alpha  occ. eigenvalues --   -1.25573  -1.25528  -1.24309  -1.24308  -1.23791
 Alpha  occ. eigenvalues --   -1.23789  -1.00154  -0.99754  -0.95175  -0.88436
 Alpha  occ. eigenvalues --   -0.84776  -0.84765  -0.84178  -0.82341  -0.80965
 Alpha  occ. eigenvalues --   -0.76543  -0.76395  -0.75762  -0.73715  -0.71117
 Alpha  occ. eigenvalues --   -0.70594  -0.70104  -0.70068  -0.67022  -0.66120
 Alpha  occ. eigenvalues --   -0.65878  -0.64878  -0.64523  -0.62053  -0.61345
 Alpha  occ. eigenvalues --   -0.58593  -0.58539  -0.58440  -0.58224  -0.58219
 Alpha  occ. eigenvalues --   -0.58183  -0.57675  -0.56822  -0.56196  -0.54004
 Alpha  occ. eigenvalues --   -0.53709  -0.51727  -0.51678  -0.50979  -0.50247
 Alpha  occ. eigenvalues --   -0.48620  -0.47619  -0.47211  -0.46618  -0.46455
 Alpha  occ. eigenvalues --   -0.46227  -0.45879  -0.45653  -0.45638  -0.45629
 Alpha  occ. eigenvalues --   -0.45286  -0.45024  -0.44080  -0.44050  -0.43836
 Alpha  occ. eigenvalues --   -0.43724  -0.43342  -0.43287  -0.42205  -0.41956
 Alpha  occ. eigenvalues --   -0.41766  -0.41743  -0.41611  -0.41554  -0.40695
 Alpha  occ. eigenvalues --   -0.39702  -0.39698  -0.39624  -0.38869  -0.38837
 Alpha  occ. eigenvalues --   -0.38340  -0.37609  -0.37485  -0.37008  -0.36673
 Alpha  occ. eigenvalues --   -0.36587  -0.36210  -0.35873  -0.35598  -0.35217
 Alpha  occ. eigenvalues --   -0.34377  -0.32902  -0.31773  -0.31426  -0.31424
 Alpha  occ. eigenvalues --   -0.30107  -0.29346  -0.28578  -0.28278  -0.27807
 Alpha  occ. eigenvalues --   -0.24698  -0.24227  -0.24207  -0.22812  -0.21758
 Alpha  occ. eigenvalues --   -0.21713  -0.21271  -0.16933
 Alpha virt. eigenvalues --   -0.11259  -0.10628  -0.07638  -0.07200  -0.04506
 Alpha virt. eigenvalues --   -0.02798  -0.02165  -0.02108  -0.01351  -0.00723
 Alpha virt. eigenvalues --   -0.00246  -0.00202   0.04467   0.05039   0.05063

 Mulliken charges:
               1
     1  Pt   1.198858
     2  C   -0.504310
     3  N   -0.645313
     4  N   -0.645246
     5  C    0.294987
     6  C    0.295286
     7  C    0.273099
     8  C    0.273172
     9  C   -0.117783
    10  C   -0.117593
    11  C    0.390170
    12  C   -0.088276
    13  C    0.100674
    14  C   -0.376661
    15  C    0.390162
    16  C   -0.209406
    17  C   -0.088135
    18  C    0.100351
    19  H    0.101133
    20  C   -0.376585
    21  C   -0.469120
    22  F   -0.265376
    23  F   -0.265393
    24  H    0.112583
    25  C    0.866562
    26  H    0.107050
    27  H    0.112704
    28  C    0.866476
    29  H    0.101147
    30  H    0.106934
    31  C   -0.187820
    32  C   -0.128997
    33  C   -0.017946
    34  C   -0.018087
    35  C   -0.152262
    36  C   -0.152229
    37  C    0.277862
    38  N   -0.578633
    39  H    0.104788
    40  F   -0.248625
    41  F   -0.243813
    42  F   -0.248056
    43  F   -0.243798
    44  F   -0.248173
    45  F   -0.248758
    46  H    0.059101
    47  H    0.054732
    48  H    0.054719
    49  H    0.059087
    50  C    0.056539
    51  C    0.056559
    52  H    0.076057
    53  H    0.075851
    54  H    0.083920
    55  H    0.075857
    56  H    0.076049
    57  H    0.083926
 Sum of Mulliken charges =  -0.00000

 Dipole moment (field-independent basis, Debye):
    X=             -2.4996    Y=             -0.0240    Z=             -0.4382  Tot=              2.5379
 Quadrupole moment (field-independent basis, Debye-Ang):
   XX=           -162.2891   YY=           -224.4536   ZZ=           -254.9477
   XY=              0.1904   XZ=             -1.3902   YZ=             -1.0249

  Exact polarizability:    1061.038       0.842     719.139       1.684      -3.060     258.367
 Approx polarizability:    1371.352       1.160     940.065       5.387      -4.586     322.405

 Normal termination of Gaussian 16 at Sat May  6 08:34:25 2023.
