 Gaussian 16, Revision C.01,
 Gaussian 16:  EM64L-G16RevC.01  3-Jul-2019

 ----------------------------------------------------------------------
 #p MN12SX/gen gfinput pseudo=read scf=maxcycle=200 Polar=(DCSHG) CPHF=
 RdFreq scrf=(iefpcm,read,solvent=n,n-DiMethylFormamide)
 ----------------------------------------------------------------------

 ------------------------------
 Primeira Hiperpolarizabilidade
 ------------------------------
 Symbolic Z-matrix:
 Charge =  0 Multiplicity = 1

                         Standard orientation:
 ---------------------------------------------------------------------
 Center     Atomic      Atomic             Coordinates (Angstroms)
 Number     Number       Type             X           Y           Z
 ---------------------------------------------------------------------
      1         78           0       -1.008098   -0.002554    0.023564
      2          6           0        1.040778    0.006667    0.073725
      3          7           0       -1.351872   -2.030588    0.021851
      4          7           0       -1.371945    2.022246    0.008714
      5          6           0       -0.428755    2.975399    0.046602
      6          6           0       -0.398749   -2.973631    0.063676
      7          6           0       -2.709059    2.370497   -0.042286
      8          6           0       -2.685437   -2.392870   -0.022148
      9          6           0       -3.612802   -1.258328   -0.063032
     10          6           0       -3.625038    1.226485   -0.074159
     11          6           0       -5.026887    1.184638   -0.123314
     12          6           0       -3.072336    3.724957   -0.058798
     13          6           0       -2.092344    4.709726   -0.020417
     14          6           0       -0.744979    4.330839    0.035451
     15          6           0       -5.014989   -1.230646   -0.112194
     16          6           0       -5.723602   -0.026574   -0.142658
     17          6           0       -3.034925   -3.751150   -0.020208
     18          6           0       -2.044755   -4.725434    0.024916
     19          1           0       -4.086756   -4.028898   -0.051962
     20          6           0       -0.700943   -4.332187    0.066180
     21          6           0       -2.958548   -0.012536   -0.045884
     22          9           0       -5.721231   -2.369921   -0.130392
     23          9           0       -5.744306    2.316719   -0.152261
     24          1           0        0.628075   -2.608296    0.098527
     25          6           0        0.398456   -5.362280    0.086817
     26          1           0       -2.317869   -5.782506    0.030833
     27          1           0        0.601877    2.621014    0.083278
     28          6           0        0.341059    5.372771    0.108014
     29          1           0       -4.126636    3.991341   -0.102923
     30          1           0       -2.375743    5.763900   -0.037457
     31          6           0        2.277388    0.010047    0.060642
     32          6           0        3.707803    0.013889    0.028194
     33          6           0        4.447523    1.218101   -0.023999
     34          6           0        4.455580   -1.186484    0.034584
     35          6           0        5.837091    1.229508   -0.071927
     36          6           0        5.845235   -1.190853   -0.012570
     37          6           0        6.585491    0.021156   -0.070201
     38          7           0        7.961809    0.024529   -0.122795
     39          1           0       -6.813007   -0.032125   -0.180343
     40          9           0        0.164122    6.329015   -0.821111
     41          9           0        1.561974    4.845788   -0.078463
     42          9           0        0.351159    5.992134    1.303574
     43          9           0        1.600000   -4.815854    0.333542
     44          9           0        0.487574   -6.010889   -1.089708
     45          9           0        0.175966   -6.297350    1.027787
     46          1           0        3.910527    2.170366   -0.029839
     47          1           0        6.346824    2.191499   -0.112978
     48          1           0        6.361574   -2.150201   -0.005956
     49          1           0        3.925014   -2.141478    0.075718
     50          6           0        8.685382    1.280513   -0.185956
     51          6           0        8.693844   -1.228146   -0.124189
     52          1           0        8.491668    1.917745    0.696229
     53          1           0        8.422404    1.868758   -1.084316
     54          1           0        9.762669    1.077961   -0.222194
     55          1           0        8.432484   -1.862719   -0.990876
     56          1           0        8.506737   -1.821220    0.789689
     57          1           0        9.769630   -1.020470   -0.173730
 ---------------------------------------------------------------------

 SCF Done:  E(RMN12SX) =  -2155.65290099     A.U. after   15 cycles

 The electronic state is 1-A.
 Alpha  occ. eigenvalues --  -25.36668 -25.36663 -25.36197 -25.36186 -25.35984
 Alpha  occ. eigenvalues --  -25.35975 -25.35565 -25.35563 -14.87145 -14.87143
 Alpha  occ. eigenvalues --  -14.80476 -10.83588 -10.83587 -10.68787 -10.68786
 Alpha  occ. eigenvalues --  -10.66022 -10.66020 -10.65041 -10.65032 -10.62216
 Alpha  occ. eigenvalues --  -10.62211 -10.61824 -10.61822 -10.61281 -10.60687
 Alpha  occ. eigenvalues --  -10.60682 -10.59772 -10.59771 -10.59608 -10.59604
 Alpha  occ. eigenvalues --  -10.59224 -10.58490 -10.57698 -10.57099 -10.57098
 Alpha  occ. eigenvalues --  -10.56378 -10.56377 -10.53585 -10.53098  -4.02430
 Alpha  occ. eigenvalues --   -2.21624  -2.21070  -2.18439  -1.38429  -1.38429
 Alpha  occ. eigenvalues --   -1.30867  -1.30827  -1.29718  -1.29716  -1.29195
 Alpha  occ. eigenvalues --   -1.29193  -1.03316  -1.02906  -0.98144  -0.91626
 Alpha  occ. eigenvalues --   -0.87949  -0.87909  -0.87023  -0.85446  -0.84114
 Alpha  occ. eigenvalues --   -0.79710  -0.79693  -0.78439  -0.76494  -0.74948
 Alpha  occ. eigenvalues --   -0.74424  -0.73076  -0.72546  -0.70048  -0.69995
 Alpha  occ. eigenvalues --   -0.68931  -0.68563  -0.67171  -0.65446  -0.64811
 Alpha  occ. eigenvalues --   -0.62878  -0.62742  -0.62738  -0.62632  -0.61994
 Alpha  occ. eigenvalues --   -0.61504  -0.61187  -0.59905  -0.59209  -0.57424
 Alpha  occ. eigenvalues --   -0.56997  -0.55262  -0.54384  -0.54048  -0.53554
 Alpha  occ. eigenvalues --   -0.52012  -0.51205  -0.50919  -0.50767  -0.50723
 Alpha  occ. eigenvalues --   -0.50528  -0.50494  -0.49765  -0.49306  -0.49197
 Alpha  occ. eigenvalues --   -0.48990  -0.48414  -0.47480  -0.47250  -0.47197
 Alpha  occ. eigenvalues --   -0.46923  -0.46890  -0.46538  -0.46218  -0.46041
 Alpha  occ. eigenvalues --   -0.46010  -0.45936  -0.44931  -0.44686  -0.44667
 Alpha  occ. eigenvalues --   -0.44661  -0.43275  -0.42256  -0.42212  -0.41891
 Alpha  occ. eigenvalues --   -0.41841  -0.40317  -0.40304  -0.39927  -0.39519
 Alpha  occ. eigenvalues --   -0.39451  -0.39383  -0.38273  -0.38107  -0.37876
 Alpha  occ. eigenvalues --   -0.36901  -0.35322  -0.34019  -0.33951  -0.33659
 Alpha  occ. eigenvalues --   -0.32531  -0.31541  -0.30926  -0.30248  -0.29887
 Alpha  occ. eigenvalues --   -0.26935  -0.26135  -0.26059  -0.25057  -0.24646
 Alpha  occ. eigenvalues --   -0.23688  -0.23366  -0.18473
 Alpha virt. eigenvalues --   -0.10850  -0.10430  -0.07136  -0.07019  -0.05541
 Alpha virt. eigenvalues --   -0.03879  -0.03504  -0.03045  -0.02174  -0.01698
 Alpha virt. eigenvalues --   -0.01585  -0.00296   0.03598   0.04126   0.04678

 Mulliken charges:
               1
     1  Pt   1.117438
     2  C   -0.536821
     3  N   -0.602459
     4  N   -0.602381
     5  C    0.275119
     6  C    0.275292
     7  C    0.239779
     8  C    0.239896
     9  C   -0.084788
    10  C   -0.084616
    11  C    0.375703
    12  C   -0.057547
    13  C    0.114533
    14  C   -0.322363
    15  C    0.375684
    16  C   -0.183237
    17  C   -0.057402
    18  C    0.114324
    19  H    0.077299
    20  C   -0.322368
    21  C   -0.446578
    22  F   -0.261439
    23  F   -0.261455
    24  H    0.097532
    25  C    0.827730
    26  H    0.087218
    27  H    0.097609
    28  C    0.827616
    29  H    0.077299
    30  H    0.087113
    31  C   -0.145074
    32  C   -0.094781
    33  C   -0.007952
    34  C   -0.008173
    35  C   -0.121883
    36  C   -0.121863
    37  C    0.254506
    38  N   -0.543192
    39  H    0.076941
    40  F   -0.244003
    41  F   -0.238399
    42  F   -0.243433
    43  F   -0.238374
    44  F   -0.243561
    45  F   -0.244138
    46  H    0.032888
    47  H    0.029534
    48  H    0.029525
    49  H    0.032954
    50  C    0.087035
    51  C    0.087054
    52  H    0.061106
    53  H    0.060890
    54  H    0.068330
    55  H    0.060922
    56  H    0.061075
    57  H    0.068335
 Sum of Mulliken charges =  -0.00000

 Dipole moment (field-independent basis, Debye):
    X=             -3.6391    Y=             -0.0281    Z=             -0.4310  Tot=              3.6646
 Quadrupole moment (field-independent basis, Debye-Ang):
   XX=           -168.3049   YY=           -224.1542   ZZ=           -254.2689
   XY=              0.1696   XZ=             -1.3403   YZ=             -1.0447

  Exact polarizability:     918.797       0.482     682.975       2.198      -3.004     252.257
 Approx polarizability:    1054.544       0.621     799.082       4.779      -3.973     304.909

 Normal termination of Gaussian 16 at Sat May  6 10:50:54 2023.
