 Gaussian 16, Revision C.01,
 Gaussian 16:  EM64L-G16RevC.01  3-Jul-2019

 ----------------------------------------------------------------------
 #p MN15L/gen gfinput pseudo=read scf=maxcycle=200 Polar=(DCSHG) CPHF=R
 dFreq scrf=(iefpcm,read,solvent=n,n-DiMethylFormamide)
 ----------------------------------------------------------------------

 ------------------------------
 Primeira Hiperpolarizabilidade
 ------------------------------
 Symbolic Z-matrix:
 Charge =  0 Multiplicity = 1

                         Standard orientation:
 ---------------------------------------------------------------------
 Center     Atomic      Atomic             Coordinates (Angstroms)
 Number     Number       Type             X           Y           Z
 ---------------------------------------------------------------------
      1         78           0       -1.008098   -0.002554    0.023564
      2          6           0        1.040778    0.006667    0.073725
      3          7           0       -1.351872   -2.030588    0.021851
      4          7           0       -1.371945    2.022246    0.008714
      5          6           0       -0.428755    2.975399    0.046602
      6          6           0       -0.398749   -2.973631    0.063676
      7          6           0       -2.709059    2.370497   -0.042286
      8          6           0       -2.685437   -2.392870   -0.022148
      9          6           0       -3.612802   -1.258328   -0.063032
     10          6           0       -3.625038    1.226485   -0.074159
     11          6           0       -5.026887    1.184638   -0.123314
     12          6           0       -3.072336    3.724957   -0.058798
     13          6           0       -2.092344    4.709726   -0.020417
     14          6           0       -0.744979    4.330839    0.035451
     15          6           0       -5.014989   -1.230646   -0.112194
     16          6           0       -5.723602   -0.026574   -0.142658
     17          6           0       -3.034925   -3.751150   -0.020208
     18          6           0       -2.044755   -4.725434    0.024916
     19          1           0       -4.086756   -4.028898   -0.051962
     20          6           0       -0.700943   -4.332187    0.066180
     21          6           0       -2.958548   -0.012536   -0.045884
     22          9           0       -5.721231   -2.369921   -0.130392
     23          9           0       -5.744306    2.316719   -0.152261
     24          1           0        0.628075   -2.608296    0.098527
     25          6           0        0.398456   -5.362280    0.086817
     26          1           0       -2.317869   -5.782506    0.030833
     27          1           0        0.601877    2.621014    0.083278
     28          6           0        0.341059    5.372771    0.108014
     29          1           0       -4.126636    3.991341   -0.102923
     30          1           0       -2.375743    5.763900   -0.037457
     31          6           0        2.277388    0.010047    0.060642
     32          6           0        3.707803    0.013889    0.028194
     33          6           0        4.447523    1.218101   -0.023999
     34          6           0        4.455580   -1.186484    0.034584
     35          6           0        5.837091    1.229508   -0.071927
     36          6           0        5.845235   -1.190853   -0.012570
     37          6           0        6.585491    0.021156   -0.070201
     38          7           0        7.961809    0.024529   -0.122795
     39          1           0       -6.813007   -0.032125   -0.180343
     40          9           0        0.164122    6.329015   -0.821111
     41          9           0        1.561974    4.845788   -0.078463
     42          9           0        0.351159    5.992134    1.303574
     43          9           0        1.600000   -4.815854    0.333542
     44          9           0        0.487574   -6.010889   -1.089708
     45          9           0        0.175966   -6.297350    1.027787
     46          1           0        3.910527    2.170366   -0.029839
     47          1           0        6.346824    2.191499   -0.112978
     48          1           0        6.361574   -2.150201   -0.005956
     49          1           0        3.925014   -2.141478    0.075718
     50          6           0        8.685382    1.280513   -0.185956
     51          6           0        8.693844   -1.228146   -0.124189
     52          1           0        8.491668    1.917745    0.696229
     53          1           0        8.422404    1.868758   -1.084316
     54          1           0        9.762669    1.077961   -0.222194
     55          1           0        8.432484   -1.862719   -0.990876
     56          1           0        8.506737   -1.821220    0.789689
     57          1           0        9.769630   -1.020470   -0.173730
 ---------------------------------------------------------------------

 SCF Done:  E(RMN15L) =  -2155.48620462     A.U. after   15 cycles

 The electronic state is 1-A.
 Alpha  occ. eigenvalues --  -24.60431 -24.60427 -24.59989 -24.59980 -24.59779
 Alpha  occ. eigenvalues --  -24.59769 -24.59751 -24.59748 -14.34831 -14.34830
 Alpha  occ. eigenvalues --  -14.28593 -10.40855 -10.40855 -10.26432 -10.26431
 Alpha  occ. eigenvalues --  -10.23488 -10.23485 -10.22495 -10.22486 -10.19658
 Alpha  occ. eigenvalues --  -10.19652 -10.18994 -10.18984 -10.18982 -10.18191
 Alpha  occ. eigenvalues --  -10.18186 -10.17648 -10.17643 -10.17348 -10.17347
 Alpha  occ. eigenvalues --  -10.16719 -10.16356 -10.15457 -10.14792 -10.14790
 Alpha  occ. eigenvalues --  -10.14073 -10.14072 -10.11061 -10.10537  -3.92963
 Alpha  occ. eigenvalues --   -2.15053  -2.14740  -2.11883  -1.34317  -1.34317
 Alpha  occ. eigenvalues --   -1.27260  -1.27217  -1.25725  -1.25724  -1.25216
 Alpha  occ. eigenvalues --   -1.25213  -1.00389  -0.99982  -0.95709  -0.88886
 Alpha  occ. eigenvalues --   -0.85007  -0.84994  -0.84527  -0.82608  -0.81226
 Alpha  occ. eigenvalues --   -0.76802  -0.76698  -0.75905  -0.74029  -0.71400
 Alpha  occ. eigenvalues --   -0.70837  -0.70573  -0.69845  -0.67182  -0.66329
 Alpha  occ. eigenvalues --   -0.66030  -0.65000  -0.64623  -0.62251  -0.61478
 Alpha  occ. eigenvalues --   -0.58774  -0.58624  -0.58581  -0.58279  -0.58277
 Alpha  occ. eigenvalues --   -0.58251  -0.57802  -0.56962  -0.56352  -0.54088
 Alpha  occ. eigenvalues --   -0.53791  -0.51982  -0.51750  -0.50759  -0.50110
 Alpha  occ. eigenvalues --   -0.48645  -0.48047  -0.47140  -0.46736  -0.46605
 Alpha  occ. eigenvalues --   -0.46447  -0.45947  -0.45680  -0.45652  -0.45638
 Alpha  occ. eigenvalues --   -0.45294  -0.45021  -0.44561  -0.44119  -0.44060
 Alpha  occ. eigenvalues --   -0.43977  -0.43460  -0.43057  -0.42400  -0.42005
 Alpha  occ. eigenvalues --   -0.41609  -0.41574  -0.41362  -0.41310  -0.40597
 Alpha  occ. eigenvalues --   -0.39810  -0.39430  -0.39424  -0.38682  -0.38619
 Alpha  occ. eigenvalues --   -0.38078  -0.37906  -0.37525  -0.36818  -0.36706
 Alpha  occ. eigenvalues --   -0.36414  -0.36050  -0.35869  -0.35399  -0.35295
 Alpha  occ. eigenvalues --   -0.33706  -0.32872  -0.31783  -0.31413  -0.31321
 Alpha  occ. eigenvalues --   -0.30151  -0.29305  -0.27910  -0.27444  -0.27307
 Alpha  occ. eigenvalues --   -0.24503  -0.24166  -0.24120  -0.22614  -0.22527
 Alpha  occ. eigenvalues --   -0.21349  -0.21080  -0.16783
 Alpha virt. eigenvalues --   -0.11049  -0.10335  -0.07366  -0.06881  -0.03949
 Alpha virt. eigenvalues --   -0.03871  -0.02468  -0.01840  -0.00288   0.01322
 Alpha virt. eigenvalues --    0.02238   0.02749   0.05334   0.05711   0.06030

 Mulliken charges:
               1
     1  Pt   1.073793
     2  C   -0.429651
     3  N   -0.671456
     4  N   -0.671375
     5  C    0.355670
     6  C    0.356063
     7  C    0.290079
     8  C    0.290163
     9  C   -0.160589
    10  C   -0.160420
    11  C    0.415608
    12  C   -0.049757
    13  C    0.132254
    14  C   -0.407314
    15  C    0.415611
    16  C   -0.179090
    17  C   -0.049657
    18  C    0.131835
    19  H    0.073083
    20  C   -0.407174
    21  C   -0.396436
    22  F   -0.261907
    23  F   -0.261927
    24  H    0.078656
    25  C    0.878270
    26  H    0.079097
    27  H    0.078810
    28  C    0.878181
    29  H    0.073102
    30  H    0.078993
    31  C   -0.199549
    32  C   -0.168532
    33  C    0.029155
    34  C    0.029190
    35  C   -0.107573
    36  C   -0.107534
    37  C    0.263317
    38  N   -0.637119
    39  H    0.074682
    40  F   -0.246416
    41  F   -0.241212
    42  F   -0.245782
    43  F   -0.241172
    44  F   -0.245882
    45  F   -0.246538
    46  H    0.022953
    47  H    0.024761
    48  H    0.024750
    49  H    0.022761
    50  C    0.159308
    51  C    0.159332
    52  H    0.047146
    53  H    0.046881
    54  H    0.058263
    55  H    0.046897
    56  H    0.047127
    57  H    0.058269
 Sum of Mulliken charges =  -0.00000

 Dipole moment (field-independent basis, Debye):
    X=             -3.1242    Y=             -0.0263    Z=             -0.4404  Tot=              3.1552
 Quadrupole moment (field-independent basis, Debye-Ang):
   XX=           -164.0779   YY=           -224.4675   ZZ=           -256.6864
   XY=              0.1847   XZ=             -1.2827   YZ=             -1.0072

  Exact polarizability:    1034.971       0.815     715.452       2.084      -3.076     250.688
 Approx polarizability:    1348.790       1.067     943.448       5.820      -4.587     316.791

 Normal termination of Gaussian 16 at Wed May 10 03:48:18 2023.
