 Gaussian 16, Revision C.01,
 Gaussian 16:  EM64L-G16RevC.01  3-Jul-2019

 ----------------------------------------------------------------------
 #p MN15/gen gfinput pseudo=read scf=maxcycle=200 Polar=(DCSHG) CPHF=Rd
 Freq scrf=(iefpcm,read,solvent=n,n-DiMethylFormamide)
 ----------------------------------------------------------------------

 ------------------------------
 Primeira Hiperpolarizabilidade
 ------------------------------
 Symbolic Z-matrix:
 Charge =  0 Multiplicity = 1

                         Standard orientation:
 ---------------------------------------------------------------------
 Center     Atomic      Atomic             Coordinates (Angstroms)
 Number     Number       Type             X           Y           Z
 ---------------------------------------------------------------------
      1         78           0       -1.008098   -0.002554    0.023564
      2          6           0        1.040778    0.006667    0.073725
      3          7           0       -1.351872   -2.030588    0.021851
      4          7           0       -1.371945    2.022246    0.008714
      5          6           0       -0.428755    2.975399    0.046602
      6          6           0       -0.398749   -2.973631    0.063676
      7          6           0       -2.709059    2.370497   -0.042286
      8          6           0       -2.685437   -2.392870   -0.022148
      9          6           0       -3.612802   -1.258328   -0.063032
     10          6           0       -3.625038    1.226485   -0.074159
     11          6           0       -5.026887    1.184638   -0.123314
     12          6           0       -3.072336    3.724957   -0.058798
     13          6           0       -2.092344    4.709726   -0.020417
     14          6           0       -0.744979    4.330839    0.035451
     15          6           0       -5.014989   -1.230646   -0.112194
     16          6           0       -5.723602   -0.026574   -0.142658
     17          6           0       -3.034925   -3.751150   -0.020208
     18          6           0       -2.044755   -4.725434    0.024916
     19          1           0       -4.086756   -4.028898   -0.051962
     20          6           0       -0.700943   -4.332187    0.066180
     21          6           0       -2.958548   -0.012536   -0.045884
     22          9           0       -5.721231   -2.369921   -0.130392
     23          9           0       -5.744306    2.316719   -0.152261
     24          1           0        0.628075   -2.608296    0.098527
     25          6           0        0.398456   -5.362280    0.086817
     26          1           0       -2.317869   -5.782506    0.030833
     27          1           0        0.601877    2.621014    0.083278
     28          6           0        0.341059    5.372771    0.108014
     29          1           0       -4.126636    3.991341   -0.102923
     30          1           0       -2.375743    5.763900   -0.037457
     31          6           0        2.277388    0.010047    0.060642
     32          6           0        3.707803    0.013889    0.028194
     33          6           0        4.447523    1.218101   -0.023999
     34          6           0        4.455580   -1.186484    0.034584
     35          6           0        5.837091    1.229508   -0.071927
     36          6           0        5.845235   -1.190853   -0.012570
     37          6           0        6.585491    0.021156   -0.070201
     38          7           0        7.961809    0.024529   -0.122795
     39          1           0       -6.813007   -0.032125   -0.180343
     40          9           0        0.164122    6.329015   -0.821111
     41          9           0        1.561974    4.845788   -0.078463
     42          9           0        0.351159    5.992134    1.303574
     43          9           0        1.600000   -4.815854    0.333542
     44          9           0        0.487574   -6.010889   -1.089708
     45          9           0        0.175966   -6.297350    1.027787
     46          1           0        3.910527    2.170366   -0.029839
     47          1           0        6.346824    2.191499   -0.112978
     48          1           0        6.361574   -2.150201   -0.005956
     49          1           0        3.925014   -2.141478    0.075718
     50          6           0        8.685382    1.280513   -0.185956
     51          6           0        8.693844   -1.228146   -0.124189
     52          1           0        8.491668    1.917745    0.696229
     53          1           0        8.422404    1.868758   -1.084316
     54          1           0        9.762669    1.077961   -0.222194
     55          1           0        8.432484   -1.862719   -0.990876
     56          1           0        8.506737   -1.821220    0.789689
     57          1           0        9.769630   -1.020470   -0.173730
 ---------------------------------------------------------------------

 SCF Done:  E(RMN15) =  -2155.39564159     A.U. after   16 cycles

 The electronic state is 1-A.
 Alpha  occ. eigenvalues --  -24.32385 -24.32379 -24.31897 -24.31886 -24.31675
 Alpha  occ. eigenvalues --  -24.31666 -24.31335 -24.31332 -14.19100 -14.19099
 Alpha  occ. eigenvalues --  -14.12008 -10.32215 -10.32214 -10.17468 -10.17464
 Alpha  occ. eigenvalues --  -10.14744 -10.14741 -10.13650 -10.13641 -10.11016
 Alpha  occ. eigenvalues --  -10.11011 -10.10463 -10.10461 -10.09791 -10.09398
 Alpha  occ. eigenvalues --  -10.09394 -10.08372 -10.08369 -10.08216 -10.08204
 Alpha  occ. eigenvalues --  -10.07823 -10.07327 -10.06148 -10.05650 -10.05649
 Alpha  occ. eigenvalues --  -10.04877 -10.04876 -10.01912 -10.01440  -3.89368
 Alpha  occ. eigenvalues --   -2.15605  -2.15387  -2.12230  -1.34907  -1.34907
 Alpha  occ. eigenvalues --   -1.26856  -1.26795  -1.25298  -1.25296  -1.24757
 Alpha  occ. eigenvalues --   -1.24755  -1.03807  -1.03375  -0.98395  -0.92997
 Alpha  occ. eigenvalues --   -0.89333  -0.89260  -0.88420  -0.86896  -0.85677
 Alpha  occ. eigenvalues --   -0.81239  -0.81155  -0.79838  -0.78326  -0.76277
 Alpha  occ. eigenvalues --   -0.75745  -0.75160  -0.73830  -0.72380  -0.71863
 Alpha  occ. eigenvalues --   -0.71166  -0.70724  -0.69013  -0.67723  -0.67143
 Alpha  occ. eigenvalues --   -0.65493  -0.65308  -0.65280  -0.65210  -0.64994
 Alpha  occ. eigenvalues --   -0.64506  -0.63582  -0.62623  -0.61463  -0.60533
 Alpha  occ. eigenvalues --   -0.59720  -0.58066  -0.57703  -0.57030  -0.56487
 Alpha  occ. eigenvalues --   -0.55425  -0.54082  -0.53859  -0.53679  -0.53627
 Alpha  occ. eigenvalues --   -0.53397  -0.53371  -0.52691  -0.52400  -0.52281
 Alpha  occ. eigenvalues --   -0.52192  -0.51645  -0.50912  -0.50813  -0.50752
 Alpha  occ. eigenvalues --   -0.50512  -0.49869  -0.49405  -0.49182  -0.49177
 Alpha  occ. eigenvalues --   -0.48927  -0.48873  -0.48104  -0.47859  -0.47232
 Alpha  occ. eigenvalues --   -0.47225  -0.46287  -0.45703  -0.45200  -0.44911
 Alpha  occ. eigenvalues --   -0.44857  -0.43962  -0.43537  -0.43219  -0.43105
 Alpha  occ. eigenvalues --   -0.42787  -0.42577  -0.42031  -0.41272  -0.41231
 Alpha  occ. eigenvalues --   -0.39898  -0.38757  -0.37345  -0.37244  -0.36890
 Alpha  occ. eigenvalues --   -0.35999  -0.34769  -0.33820  -0.33423  -0.32333
 Alpha  occ. eigenvalues --   -0.29942  -0.29239  -0.29057  -0.28879  -0.27900
 Alpha  occ. eigenvalues --   -0.26695  -0.26347  -0.21121
 Alpha virt. eigenvalues --   -0.07457  -0.06975  -0.03339  -0.02996  -0.00182
 Alpha virt. eigenvalues --    0.01679   0.01840   0.02028   0.03541   0.05892
 Alpha virt. eigenvalues --    0.07152   0.07659   0.09800   0.10272   0.10338

 Mulliken charges:
               1
     1  Pt   0.678289
     2  C   -0.476240
     3  N   -0.305524
     4  N   -0.305476
     5  C    0.170734
     6  C    0.170876
     7  C    0.145637
     8  C    0.145709
     9  C    0.037276
    10  C    0.037407
    11  C    0.232105
    12  C   -0.029878
    13  C    0.112241
    14  C   -0.143481
    15  C    0.232064
    16  C   -0.132346
    17  C   -0.029725
    18  C    0.112115
    19  H    0.025073
    20  C   -0.143271
    21  C   -0.398627
    22  F   -0.172214
    23  F   -0.172227
    24  H    0.034253
    25  C    0.505994
    26  H    0.042887
    27  H    0.034595
    28  C    0.506080
    29  H    0.025068
    30  H    0.042780
    31  C   -0.086492
    32  C    0.004085
    33  C   -0.013765
    34  C   -0.013746
    35  C   -0.070034
    36  C   -0.069962
    37  C    0.184312
    38  N   -0.320939
    39  H    0.021503
    40  F   -0.160371
    41  F   -0.151401
    42  F   -0.159548
    43  F   -0.151257
    44  F   -0.159671
    45  F   -0.160492
    46  H   -0.023252
    47  H   -0.030046
    48  H   -0.030059
    49  H   -0.023373
    50  C    0.119925
    51  C    0.119952
    52  H    0.029707
    53  H    0.029440
    54  H    0.037078
    55  H    0.029482
    56  H    0.029666
    57  H    0.037082
 Sum of Mulliken charges =  -0.00000

 Dipole moment (field-independent basis, Debye):
    X=             -4.3388    Y=             -0.0303    Z=             -0.4296  Tot=              4.3601
 Quadrupole moment (field-independent basis, Debye-Ang):
   XX=           -166.7646   YY=           -217.3780   ZZ=           -250.6583
   XY=              0.1542   XZ=             -1.2032   YZ=             -1.0966

  Exact polarizability:     836.360       0.358     659.583       2.770      -2.959     242.581
 Approx polarizability:     748.421       0.295     614.691       3.998      -2.952     261.310

 Normal termination of Gaussian 16 at Wed May 10 02:21:24 2023.
