 Gaussian 16, Revision C.01,
 Gaussian 16:  EM64L-G16RevC.01  3-Jul-2019

 ----------------------------------------------------------------------
 #p mPW1LYP/gen gfinput pseudo=read scf=maxcycle=200 Polar=(DCSHG) CPHF
 =RdFreq scrf=(iefpcm,read,solvent=n,n-DiMethylFormamide)
 ----------------------------------------------------------------------

 ------------------------------
 Primeira Hiperpolarizabilidade
 ------------------------------
 Symbolic Z-matrix:
 Charge =  0 Multiplicity = 1

                         Standard orientation:
 ---------------------------------------------------------------------
 Center     Atomic      Atomic             Coordinates (Angstroms)
 Number     Number       Type             X           Y           Z
 ---------------------------------------------------------------------
      1         78           0       -1.008098   -0.002554    0.023564
      2          6           0        1.040778    0.006667    0.073725
      3          7           0       -1.351872   -2.030588    0.021851
      4          7           0       -1.371945    2.022246    0.008714
      5          6           0       -0.428755    2.975399    0.046602
      6          6           0       -0.398749   -2.973631    0.063676
      7          6           0       -2.709059    2.370497   -0.042286
      8          6           0       -2.685437   -2.392870   -0.022148
      9          6           0       -3.612802   -1.258328   -0.063032
     10          6           0       -3.625038    1.226485   -0.074159
     11          6           0       -5.026887    1.184638   -0.123314
     12          6           0       -3.072336    3.724957   -0.058798
     13          6           0       -2.092344    4.709726   -0.020417
     14          6           0       -0.744979    4.330839    0.035451
     15          6           0       -5.014989   -1.230646   -0.112194
     16          6           0       -5.723602   -0.026574   -0.142658
     17          6           0       -3.034925   -3.751150   -0.020208
     18          6           0       -2.044755   -4.725434    0.024916
     19          1           0       -4.086756   -4.028898   -0.051962
     20          6           0       -0.700943   -4.332187    0.066180
     21          6           0       -2.958548   -0.012536   -0.045884
     22          9           0       -5.721231   -2.369921   -0.130392
     23          9           0       -5.744306    2.316719   -0.152261
     24          1           0        0.628075   -2.608296    0.098527
     25          6           0        0.398456   -5.362280    0.086817
     26          1           0       -2.317869   -5.782506    0.030833
     27          1           0        0.601877    2.621014    0.083278
     28          6           0        0.341059    5.372771    0.108014
     29          1           0       -4.126636    3.991341   -0.102923
     30          1           0       -2.375743    5.763900   -0.037457
     31          6           0        2.277388    0.010047    0.060642
     32          6           0        3.707803    0.013889    0.028194
     33          6           0        4.447523    1.218101   -0.023999
     34          6           0        4.455580   -1.186484    0.034584
     35          6           0        5.837091    1.229508   -0.071927
     36          6           0        5.845235   -1.190853   -0.012570
     37          6           0        6.585491    0.021156   -0.070201
     38          7           0        7.961809    0.024529   -0.122795
     39          1           0       -6.813007   -0.032125   -0.180343
     40          9           0        0.164122    6.329015   -0.821111
     41          9           0        1.561974    4.845788   -0.078463
     42          9           0        0.351159    5.992134    1.303574
     43          9           0        1.600000   -4.815854    0.333542
     44          9           0        0.487574   -6.010889   -1.089708
     45          9           0        0.175966   -6.297350    1.027787
     46          1           0        3.910527    2.170366   -0.029839
     47          1           0        6.346824    2.191499   -0.112978
     48          1           0        6.361574   -2.150201   -0.005956
     49          1           0        3.925014   -2.141478    0.075718
     50          6           0        8.685382    1.280513   -0.185956
     51          6           0        8.693844   -1.228146   -0.124189
     52          1           0        8.491668    1.917745    0.696229
     53          1           0        8.422404    1.868758   -1.084316
     54          1           0        9.762669    1.077961   -0.222194
     55          1           0        8.432484   -1.862719   -0.990876
     56          1           0        8.506737   -1.821220    0.789689
     57          1           0        9.769630   -1.020470   -0.173730
 ---------------------------------------------------------------------

 SCF Done:  E(RmPW1LYP) =  -2156.98968884     A.U. after   16 cycles

 The electronic state is 1-A.
 Alpha  occ. eigenvalues --  -24.84554 -24.84549 -24.84080 -24.84069 -24.83862
 Alpha  occ. eigenvalues --  -24.83853 -24.83576 -24.83574 -14.49438 -14.49437
 Alpha  occ. eigenvalues --  -14.43122 -10.52284 -10.52283 -10.37702 -10.37701
 Alpha  occ. eigenvalues --  -10.34805 -10.34802 -10.33765 -10.33756 -10.31303
 Alpha  occ. eigenvalues --  -10.31299 -10.30922 -10.30920 -10.30117 -10.29824
 Alpha  occ. eigenvalues --  -10.29820 -10.28891 -10.28884 -10.28770 -10.28769
 Alpha  occ. eigenvalues --  -10.28368 -10.27327 -10.26715 -10.26113 -10.26112
 Alpha  occ. eigenvalues --  -10.25402 -10.25401 -10.22490 -10.21770  -3.96559
 Alpha  occ. eigenvalues --   -2.18307  -2.17965  -2.14764  -1.33246  -1.33245
 Alpha  occ. eigenvalues --   -1.25574  -1.25524  -1.24173  -1.24171  -1.23644
 Alpha  occ. eigenvalues --   -1.23643  -1.00816  -1.00420  -0.95817  -0.89916
 Alpha  occ. eigenvalues --   -0.86382  -0.86311  -0.85462  -0.83994  -0.82737
 Alpha  occ. eigenvalues --   -0.78341  -0.78314  -0.77110  -0.75480  -0.73425
 Alpha  occ. eigenvalues --   -0.72896  -0.72456  -0.71082  -0.69128  -0.68677
 Alpha  occ. eigenvalues --   -0.68043  -0.67451  -0.66315  -0.64457  -0.63895
 Alpha  occ. eigenvalues --   -0.61707  -0.61515  -0.61427  -0.61416  -0.61174
 Alpha  occ. eigenvalues --   -0.60727  -0.60699  -0.59068  -0.58635  -0.56860
 Alpha  occ. eigenvalues --   -0.56371  -0.54532  -0.54268  -0.53604  -0.53053
 Alpha  occ. eigenvalues --   -0.51073  -0.50972  -0.49918  -0.49834  -0.49662
 Alpha  occ. eigenvalues --   -0.49242  -0.49213  -0.49202  -0.48953  -0.48748
 Alpha  occ. eigenvalues --   -0.48714  -0.48276  -0.47091  -0.47084  -0.46580
 Alpha  occ. eigenvalues --   -0.46492  -0.46306  -0.45924  -0.45167  -0.45043
 Alpha  occ. eigenvalues --   -0.45040  -0.44974  -0.44949  -0.44580  -0.43309
 Alpha  occ. eigenvalues --   -0.43184  -0.43179  -0.42645  -0.41831  -0.41662
 Alpha  occ. eigenvalues --   -0.41490  -0.40992  -0.40557  -0.40074  -0.39697
 Alpha  occ. eigenvalues --   -0.39358  -0.39066  -0.38442  -0.38394  -0.38096
 Alpha  occ. eigenvalues --   -0.36683  -0.35038  -0.34429  -0.33781  -0.33387
 Alpha  occ. eigenvalues --   -0.32358  -0.31335  -0.30441  -0.30019  -0.29232
 Alpha  occ. eigenvalues --   -0.26643  -0.25982  -0.25866  -0.24947  -0.24766
 Alpha  occ. eigenvalues --   -0.23483  -0.23219  -0.18315
 Alpha virt. eigenvalues --   -0.08306  -0.07887  -0.04623  -0.04286  -0.01406
 Alpha virt. eigenvalues --    0.00346   0.00451   0.00776   0.02148   0.02612
 Alpha virt. eigenvalues --    0.03201   0.03491   0.06544   0.07763   0.08087

 Mulliken charges:
               1
     1  Pt   0.732864
     2  C   -0.477535
     3  N   -0.345124
     4  N   -0.345104
     5  C    0.158874
     6  C    0.158954
     7  C    0.176774
     8  C    0.176822
     9  C    0.026584
    10  C    0.026715
    11  C    0.256229
    12  C   -0.037881
    13  C    0.109194
    14  C   -0.134313
    15  C    0.256185
    16  C   -0.141951
    17  C   -0.037816
    18  C    0.109014
    19  H    0.013245
    20  C   -0.134178
    21  C   -0.356550
    22  F   -0.190905
    23  F   -0.190919
    24  H    0.045159
    25  C    0.575797
    26  H    0.028479
    27  H    0.045225
    28  C    0.575805
    29  H    0.013229
    30  H    0.028366
    31  C   -0.074240
    32  C   -0.013907
    33  C   -0.011730
    34  C   -0.011801
    35  C   -0.082077
    36  C   -0.082033
    37  C    0.210268
    38  N   -0.323192
    39  H    0.006742
    40  F   -0.179029
    41  F   -0.169838
    42  F   -0.178460
    43  F   -0.169708
    44  F   -0.178595
    45  F   -0.179159
    46  H   -0.028480
    47  H   -0.029461
    48  H   -0.029463
    49  H   -0.028508
    50  C    0.149677
    51  C    0.149702
    52  H    0.020190
    53  H    0.019915
    54  H    0.025920
    55  H    0.019977
    56  H    0.020127
    57  H    0.025925
 Sum of Mulliken charges =  -0.00000

 Dipole moment (field-independent basis, Debye):
    X=             -3.8928    Y=             -0.0288    Z=             -0.4231  Tot=              3.9158
 Quadrupole moment (field-independent basis, Debye-Ang):
   XX=           -168.6591   YY=           -220.5269   ZZ=           -250.1419
   XY=              0.1566   XZ=             -1.2799   YZ=             -1.0237

  Exact polarizability:     886.179       0.407     677.351       2.647      -3.012     241.589
 Approx polarizability:     916.224       0.435     725.751       4.685      -3.536     285.784

 Normal termination of Gaussian 16 at Sat May  6 12:26:55 2023.
