 Gaussian 16, Revision C.01,
 Gaussian 16:  EM64L-G16RevC.01  3-Jul-2019

 ----------------------------------------------------------------------
 #p mPW1PW91/gen gfinput pseudo=read scf=maxcycle=200 Polar=(DCSHG) CPH
 F=RdFreq scrf=(iefpcm,read,solvent=n,n-DiMethylFormamide)
 ----------------------------------------------------------------------

 ------------------------------
 Primeira Hiperpolarizabilidade
 ------------------------------
 Symbolic Z-matrix:
 Charge =  0 Multiplicity = 1

                         Standard orientation:
 ---------------------------------------------------------------------
 Center     Atomic      Atomic             Coordinates (Angstroms)
 Number     Number       Type             X           Y           Z
 ---------------------------------------------------------------------
      1         78           0       -1.008098   -0.002554    0.023564
      2          6           0        1.040778    0.006667    0.073725
      3          7           0       -1.351872   -2.030588    0.021851
      4          7           0       -1.371945    2.022246    0.008714
      5          6           0       -0.428755    2.975399    0.046602
      6          6           0       -0.398749   -2.973631    0.063676
      7          6           0       -2.709059    2.370497   -0.042286
      8          6           0       -2.685437   -2.392870   -0.022148
      9          6           0       -3.612802   -1.258328   -0.063032
     10          6           0       -3.625038    1.226485   -0.074159
     11          6           0       -5.026887    1.184638   -0.123314
     12          6           0       -3.072336    3.724957   -0.058798
     13          6           0       -2.092344    4.709726   -0.020417
     14          6           0       -0.744979    4.330839    0.035451
     15          6           0       -5.014989   -1.230646   -0.112194
     16          6           0       -5.723602   -0.026574   -0.142658
     17          6           0       -3.034925   -3.751150   -0.020208
     18          6           0       -2.044755   -4.725434    0.024916
     19          1           0       -4.086756   -4.028898   -0.051962
     20          6           0       -0.700943   -4.332187    0.066180
     21          6           0       -2.958548   -0.012536   -0.045884
     22          9           0       -5.721231   -2.369921   -0.130392
     23          9           0       -5.744306    2.316719   -0.152261
     24          1           0        0.628075   -2.608296    0.098527
     25          6           0        0.398456   -5.362280    0.086817
     26          1           0       -2.317869   -5.782506    0.030833
     27          1           0        0.601877    2.621014    0.083278
     28          6           0        0.341059    5.372771    0.108014
     29          1           0       -4.126636    3.991341   -0.102923
     30          1           0       -2.375743    5.763900   -0.037457
     31          6           0        2.277388    0.010047    0.060642
     32          6           0        3.707803    0.013889    0.028194
     33          6           0        4.447523    1.218101   -0.023999
     34          6           0        4.455580   -1.186484    0.034584
     35          6           0        5.837091    1.229508   -0.071927
     36          6           0        5.845235   -1.190853   -0.012570
     37          6           0        6.585491    0.021156   -0.070201
     38          7           0        7.961809    0.024529   -0.122795
     39          1           0       -6.813007   -0.032125   -0.180343
     40          9           0        0.164122    6.329015   -0.821111
     41          9           0        1.561974    4.845788   -0.078463
     42          9           0        0.351159    5.992134    1.303574
     43          9           0        1.600000   -4.815854    0.333542
     44          9           0        0.487574   -6.010889   -1.089708
     45          9           0        0.175966   -6.297350    1.027787
     46          1           0        3.910527    2.170366   -0.029839
     47          1           0        6.346824    2.191499   -0.112978
     48          1           0        6.361574   -2.150201   -0.005956
     49          1           0        3.925014   -2.141478    0.075718
     50          6           0        8.685382    1.280513   -0.185956
     51          6           0        8.693844   -1.228146   -0.124189
     52          1           0        8.491668    1.917745    0.696229
     53          1           0        8.422404    1.868758   -1.084316
     54          1           0        9.762669    1.077961   -0.222194
     55          1           0        8.432484   -1.862719   -0.990876
     56          1           0        8.506737   -1.821220    0.789689
     57          1           0        9.769630   -1.020470   -0.173730
 ---------------------------------------------------------------------

 SCF Done:  E(RmPW1PW91) =  -2157.49968965     A.U. after   15 cycles

 The electronic state is 1-A.
 Alpha  occ. eigenvalues --  -24.83819 -24.83814 -24.83360 -24.83349 -24.83151
 Alpha  occ. eigenvalues --  -24.83143 -24.82977 -24.82975 -14.49622 -14.49621
 Alpha  occ. eigenvalues --  -14.43077 -10.51235 -10.51235 -10.37031 -10.37029
 Alpha  occ. eigenvalues --  -10.34233 -10.34231 -10.33021 -10.33013 -10.30552
 Alpha  occ. eigenvalues --  -10.30548 -10.30278 -10.30276 -10.29430 -10.29071
 Alpha  occ. eigenvalues --  -10.29067 -10.28269 -10.28268 -10.27740 -10.27734
 Alpha  occ. eigenvalues --  -10.27604 -10.27178 -10.26076 -10.25373 -10.25372
 Alpha  occ. eigenvalues --  -10.24642 -10.24641 -10.21970 -10.21536  -3.97330
 Alpha  occ. eigenvalues --   -2.19073  -2.18757  -2.15496  -1.34535  -1.34535
 Alpha  occ. eigenvalues --   -1.26920  -1.26869  -1.25375  -1.25374  -1.24855
 Alpha  occ. eigenvalues --   -1.24853  -1.02263  -1.01860  -0.97114  -0.91362
 Alpha  occ. eigenvalues --   -0.87683  -0.87606  -0.86766  -0.85309  -0.84032
 Alpha  occ. eigenvalues --   -0.79621  -0.79580  -0.78325  -0.76618  -0.74656
 Alpha  occ. eigenvalues --   -0.74097  -0.73496  -0.72243  -0.70306  -0.69842
 Alpha  occ. eigenvalues --   -0.69170  -0.68585  -0.67354  -0.65598  -0.65032
 Alpha  occ. eigenvalues --   -0.62738  -0.62546  -0.62456  -0.62446  -0.62235
 Alpha  occ. eigenvalues --   -0.61748  -0.61716  -0.60193  -0.59643  -0.57913
 Alpha  occ. eigenvalues --   -0.57436  -0.55568  -0.55261  -0.54603  -0.54041
 Alpha  occ. eigenvalues --   -0.52097  -0.51917  -0.50859  -0.50812  -0.50523
 Alpha  occ. eigenvalues --   -0.50145  -0.50096  -0.50045  -0.49862  -0.49618
 Alpha  occ. eigenvalues --   -0.49533  -0.49095  -0.47943  -0.47885  -0.47683
 Alpha  occ. eigenvalues --   -0.47584  -0.47261  -0.46799  -0.45939  -0.45937
 Alpha  occ. eigenvalues --   -0.45921  -0.45791  -0.45753  -0.45542  -0.44151
 Alpha  occ. eigenvalues --   -0.43996  -0.43991  -0.43347  -0.42647  -0.42504
 Alpha  occ. eigenvalues --   -0.42340  -0.41574  -0.41235  -0.40834  -0.40440
 Alpha  occ. eigenvalues --   -0.40228  -0.40134  -0.39182  -0.39093  -0.39014
 Alpha  occ. eigenvalues --   -0.37556  -0.36149  -0.35074  -0.34897  -0.34503
 Alpha  occ. eigenvalues --   -0.33425  -0.32399  -0.31448  -0.31100  -0.30228
 Alpha  occ. eigenvalues --   -0.27685  -0.27045  -0.26903  -0.25939  -0.25824
 Alpha  occ. eigenvalues --   -0.24497  -0.24237  -0.19263
 Alpha virt. eigenvalues --   -0.09321  -0.08902  -0.05571  -0.05234  -0.02234
 Alpha virt. eigenvalues --   -0.00634  -0.00434  -0.00180   0.01180   0.03028
 Alpha virt. eigenvalues --    0.04101   0.04446   0.07073   0.07328   0.07470

 Mulliken charges:
               1
     1  Pt   0.867976
     2  C   -0.516316
     3  N   -0.425980
     4  N   -0.425954
     5  C    0.192110
     6  C    0.192093
     7  C    0.190631
     8  C    0.190707
     9  C   -0.034541
    10  C   -0.034389
    11  C    0.301263
    12  C   -0.058893
    13  C    0.103879
    14  C   -0.237776
    15  C    0.301234
    16  C   -0.178389
    17  C   -0.058782
    18  C    0.103796
    19  H    0.059893
    20  C   -0.237678
    21  C   -0.397960
    22  F   -0.201348
    23  F   -0.201364
    24  H    0.086710
    25  C    0.641622
    26  H    0.070968
    27  H    0.086759
    28  C    0.641636
    29  H    0.059878
    30  H    0.070875
    31  C   -0.103769
    32  C   -0.070630
    33  C   -0.024835
    34  C   -0.024970
    35  C   -0.115752
    36  C   -0.115702
    37  C    0.211871
    38  N   -0.400649
    39  H    0.056451
    40  F   -0.189531
    41  F   -0.181727
    42  F   -0.189074
    43  F   -0.181627
    44  F   -0.189186
    45  F   -0.189659
    46  H    0.020360
    47  H    0.018415
    48  H    0.018409
    49  H    0.020371
    50  C    0.066300
    51  C    0.066322
    52  H    0.055865
    53  H    0.055627
    54  H    0.061481
    55  H    0.055676
    56  H    0.055817
    57  H    0.061486
 Sum of Mulliken charges =  -0.00000

 Dipole moment (field-independent basis, Debye):
    X=             -3.7425    Y=             -0.0284    Z=             -0.4330  Tot=              3.7675
 Quadrupole moment (field-independent basis, Debye-Ang):
   XX=           -161.8732   YY=           -216.1696   ZZ=           -250.0273
   XY=              0.1624   XZ=             -1.2821   YZ=             -1.0551

  Exact polarizability:     885.606       0.413     675.269       2.570      -2.948     244.178
 Approx polarizability:     917.157       0.443     723.585       4.721      -3.499     281.244

 Normal termination of Gaussian 16 at Sat May  6 14:02:02 2023.
