 Gaussian 16, Revision C.01,
 Gaussian 16:  EM64L-G16RevC.01  3-Jul-2019

 ----------------------------------------------------------------------
 #p mPW3PBE/gen gfinput pseudo=read scf=maxcycle=200 Polar=(DCSHG) CPHF
 =RdFreq scrf=(iefpcm,read,solvent=n,n-DiMethylFormamide)
 ----------------------------------------------------------------------

 ------------------------------
 Primeira Hiperpolarizabilidade
 ------------------------------
 Symbolic Z-matrix:
 Charge =  0 Multiplicity = 1

                         Standard orientation:
 ---------------------------------------------------------------------
 Center     Atomic      Atomic             Coordinates (Angstroms)
 Number     Number       Type             X           Y           Z
 ---------------------------------------------------------------------
      1         78           0       -1.008098   -0.002554    0.023564
      2          6           0        1.040778    0.006667    0.073725
      3          7           0       -1.351872   -2.030588    0.021851
      4          7           0       -1.371945    2.022246    0.008714
      5          6           0       -0.428755    2.975399    0.046602
      6          6           0       -0.398749   -2.973631    0.063676
      7          6           0       -2.709059    2.370497   -0.042286
      8          6           0       -2.685437   -2.392870   -0.022148
      9          6           0       -3.612802   -1.258328   -0.063032
     10          6           0       -3.625038    1.226485   -0.074159
     11          6           0       -5.026887    1.184638   -0.123314
     12          6           0       -3.072336    3.724957   -0.058798
     13          6           0       -2.092344    4.709726   -0.020417
     14          6           0       -0.744979    4.330839    0.035451
     15          6           0       -5.014989   -1.230646   -0.112194
     16          6           0       -5.723602   -0.026574   -0.142658
     17          6           0       -3.034925   -3.751150   -0.020208
     18          6           0       -2.044755   -4.725434    0.024916
     19          1           0       -4.086756   -4.028898   -0.051962
     20          6           0       -0.700943   -4.332187    0.066180
     21          6           0       -2.958548   -0.012536   -0.045884
     22          9           0       -5.721231   -2.369921   -0.130392
     23          9           0       -5.744306    2.316719   -0.152261
     24          1           0        0.628075   -2.608296    0.098527
     25          6           0        0.398456   -5.362280    0.086817
     26          1           0       -2.317869   -5.782506    0.030833
     27          1           0        0.601877    2.621014    0.083278
     28          6           0        0.341059    5.372771    0.108014
     29          1           0       -4.126636    3.991341   -0.102923
     30          1           0       -2.375743    5.763900   -0.037457
     31          6           0        2.277388    0.010047    0.060642
     32          6           0        3.707803    0.013889    0.028194
     33          6           0        4.447523    1.218101   -0.023999
     34          6           0        4.455580   -1.186484    0.034584
     35          6           0        5.837091    1.229508   -0.071927
     36          6           0        5.845235   -1.190853   -0.012570
     37          6           0        6.585491    0.021156   -0.070201
     38          7           0        7.961809    0.024529   -0.122795
     39          1           0       -6.813007   -0.032125   -0.180343
     40          9           0        0.164122    6.329015   -0.821111
     41          9           0        1.561974    4.845788   -0.078463
     42          9           0        0.351159    5.992134    1.303574
     43          9           0        1.600000   -4.815854    0.333542
     44          9           0        0.487574   -6.010889   -1.089708
     45          9           0        0.175966   -6.297350    1.027787
     46          1           0        3.910527    2.170366   -0.029839
     47          1           0        6.346824    2.191499   -0.112978
     48          1           0        6.361574   -2.150201   -0.005956
     49          1           0        3.925014   -2.141478    0.075718
     50          6           0        8.685382    1.280513   -0.185956
     51          6           0        8.693844   -1.228146   -0.124189
     52          1           0        8.491668    1.917745    0.696229
     53          1           0        8.422404    1.868758   -1.084316
     54          1           0        9.762669    1.077961   -0.222194
     55          1           0        8.432484   -1.862719   -0.990876
     56          1           0        8.506737   -1.821220    0.789689
     57          1           0        9.769630   -1.020470   -0.173730
 ---------------------------------------------------------------------

 SCF Done:  E(RmPW3PBE) =  -2156.66234042     A.U. after   15 cycles

 The electronic state is 1-A.
 Alpha  occ. eigenvalues --  -24.72050 -24.72045 -24.71594 -24.71583 -24.71389
 Alpha  occ. eigenvalues --  -24.71380 -24.71270 -24.71268 -14.40509 -14.40507
 Alpha  occ. eigenvalues --  -14.34130 -10.43328 -10.43327 -10.29223 -10.29221
 Alpha  occ. eigenvalues --  -10.26428 -10.26425 -10.25242 -10.25234 -10.22775
 Alpha  occ. eigenvalues --  -10.22771 -10.22566 -10.22564 -10.21715 -10.21388
 Alpha  occ. eigenvalues --  -10.21384 -10.20568 -10.20566 -10.20145 -10.20138
 Alpha  occ. eigenvalues --  -10.19919 -10.19456 -10.18418 -10.17687 -10.17685
 Alpha  occ. eigenvalues --  -10.16999 -10.16998 -10.14355 -10.13908  -3.93765
 Alpha  occ. eigenvalues --   -2.16490  -2.16156  -2.12890  -1.31735  -1.31734
 Alpha  occ. eigenvalues --   -1.24200  -1.24150  -1.22614  -1.22613  -1.22096
 Alpha  occ. eigenvalues --   -1.22094  -1.00054  -0.99658  -0.95023  -0.89260
 Alpha  occ. eigenvalues --   -0.85640  -0.85567  -0.84738  -0.83316  -0.82062
 Alpha  occ. eigenvalues --   -0.77709  -0.77658  -0.76453  -0.74776  -0.72829
 Alpha  occ. eigenvalues --   -0.72266  -0.71782  -0.70469  -0.68624  -0.68113
 Alpha  occ. eigenvalues --   -0.67494  -0.66907  -0.65717  -0.63974  -0.63433
 Alpha  occ. eigenvalues --   -0.61155  -0.60988  -0.60857  -0.60849  -0.60676
 Alpha  occ. eigenvalues --   -0.60197  -0.60170  -0.58725  -0.58164  -0.56452
 Alpha  occ. eigenvalues --   -0.55972  -0.54153  -0.53940  -0.53255  -0.52651
 Alpha  occ. eigenvalues --   -0.50655  -0.50602  -0.49492  -0.49274  -0.49058
 Alpha  occ. eigenvalues --   -0.48935  -0.48563  -0.48416  -0.48399  -0.48223
 Alpha  occ. eigenvalues --   -0.48024  -0.47692  -0.46695  -0.46620  -0.46477
 Alpha  occ. eigenvalues --   -0.46369  -0.45851  -0.45511  -0.44686  -0.44421
 Alpha  occ. eigenvalues --   -0.44411  -0.44372  -0.44217  -0.44153  -0.43048
 Alpha  occ. eigenvalues --   -0.42366  -0.42361  -0.42183  -0.41403  -0.41258
 Alpha  occ. eigenvalues --   -0.40988  -0.40506  -0.40123  -0.39661  -0.39302
 Alpha  occ. eigenvalues --   -0.39132  -0.38873  -0.38153  -0.38019  -0.37967
 Alpha  occ. eigenvalues --   -0.36489  -0.35244  -0.34055  -0.34049  -0.33669
 Alpha  occ. eigenvalues --   -0.32496  -0.31570  -0.30442  -0.30269  -0.29291
 Alpha  occ. eigenvalues --   -0.26913  -0.26308  -0.26197  -0.25090  -0.25085
 Alpha  occ. eigenvalues --   -0.23685  -0.23513  -0.18687
 Alpha virt. eigenvalues --   -0.09923  -0.09477  -0.06299  -0.05974  -0.02922
 Alpha virt. eigenvalues --   -0.01553  -0.01183  -0.00902   0.00347   0.02475
 Alpha virt. eigenvalues --    0.03533   0.03894   0.06253   0.06468   0.06549

 Mulliken charges:
               1
     1  Pt   0.827241
     2  C   -0.510549
     3  N   -0.400939
     4  N   -0.400918
     5  C    0.179222
     6  C    0.179211
     7  C    0.181475
     8  C    0.181546
     9  C   -0.016160
    10  C   -0.016011
    11  C    0.283846
    12  C   -0.055956
    13  C    0.100306
    14  C   -0.214688
    15  C    0.283814
    16  C   -0.172846
    17  C   -0.055851
    18  C    0.100219
    19  H    0.053127
    20  C   -0.214584
    21  C   -0.397296
    22  F   -0.190789
    23  F   -0.190804
    24  H    0.080539
    25  C    0.606388
    26  H    0.064618
    27  H    0.080598
    28  C    0.606405
    29  H    0.053110
    30  H    0.064519
    31  C   -0.093178
    32  C   -0.058188
    33  C   -0.027329
    34  C   -0.027454
    35  C   -0.108912
    36  C   -0.108861
    37  C    0.205859
    38  N   -0.374641
    39  H    0.049687
    40  F   -0.180037
    41  F   -0.171930
    42  F   -0.179526
    43  F   -0.171822
    44  F   -0.179644
    45  F   -0.180166
    46  H    0.013854
    47  H    0.011770
    48  H    0.011764
    49  H    0.013861
    50  C    0.066657
    51  C    0.066680
    52  H    0.053844
    53  H    0.053601
    54  H    0.058934
    55  H    0.053652
    56  H    0.053794
    57  H    0.058938
 Sum of Mulliken charges =  -0.00000

 Dipole moment (field-independent basis, Debye):
    X=             -3.5343    Y=             -0.0277    Z=             -0.4338  Tot=              3.5609
 Quadrupole moment (field-independent basis, Debye-Ang):
   XX=           -160.7982   YY=           -216.4361   ZZ=           -249.8469
   XY=              0.1671   XZ=             -1.2879   YZ=             -1.0415

  Exact polarizability:     923.403       0.479     689.637       2.519      -2.988     244.861
 Approx polarizability:    1004.233       0.536     775.882       5.051      -3.756     290.608

 Normal termination of Gaussian 16 at Sat May  6 15:43:48 2023.
