 Gaussian 16, Revision C.01,
 Gaussian 16:  EM64L-G16RevC.01  3-Jul-2019

 ----------------------------------------------------------------------
 #p B3LYP/gen gfinput pseudo=read Integral(Grid=UltraFine,Acc2E=12) scf
 =maxcycle=200 Polar=(DCSHG) CPHF=RdFreq scrf=(iefpcm,read,solvent=n,n-
 DiMethylFormamide)
 ----------------------------------------------------------------------

 ------------------------------
 Primeira Hiperpolarizabilidade
 ------------------------------
 Symbolic Z-matrix:
 Charge =  0 Multiplicity = 1

                         Standard orientation:
 ---------------------------------------------------------------------
 Center     Atomic      Atomic             Coordinates (Angstroms)
 Number     Number       Type             X           Y           Z
 ---------------------------------------------------------------------
      1         78           0       -1.008098   -0.002554    0.023564
      2          6           0        1.040778    0.006667    0.073725
      3          7           0       -1.351872   -2.030588    0.021851
      4          7           0       -1.371945    2.022246    0.008714
      5          6           0       -0.428755    2.975399    0.046602
      6          6           0       -0.398749   -2.973631    0.063676
      7          6           0       -2.709059    2.370497   -0.042286
      8          6           0       -2.685437   -2.392870   -0.022148
      9          6           0       -3.612802   -1.258328   -0.063032
     10          6           0       -3.625038    1.226485   -0.074159
     11          6           0       -5.026887    1.184638   -0.123314
     12          6           0       -3.072336    3.724957   -0.058798
     13          6           0       -2.092344    4.709726   -0.020417
     14          6           0       -0.744979    4.330839    0.035451
     15          6           0       -5.014989   -1.230646   -0.112194
     16          6           0       -5.723602   -0.026574   -0.142658
     17          6           0       -3.034925   -3.751150   -0.020208
     18          6           0       -2.044755   -4.725434    0.024916
     19          1           0       -4.086756   -4.028898   -0.051962
     20          6           0       -0.700943   -4.332187    0.066180
     21          6           0       -2.958548   -0.012536   -0.045884
     22          9           0       -5.721231   -2.369921   -0.130392
     23          9           0       -5.744306    2.316719   -0.152261
     24          1           0        0.628075   -2.608296    0.098527
     25          6           0        0.398456   -5.362280    0.086817
     26          1           0       -2.317869   -5.782506    0.030833
     27          1           0        0.601877    2.621014    0.083278
     28          6           0        0.341059    5.372771    0.108014
     29          1           0       -4.126636    3.991341   -0.102923
     30          1           0       -2.375743    5.763900   -0.037457
     31          6           0        2.277388    0.010047    0.060642
     32          6           0        3.707803    0.013889    0.028194
     33          6           0        4.447523    1.218101   -0.023999
     34          6           0        4.455580   -1.186484    0.034584
     35          6           0        5.837091    1.229508   -0.071927
     36          6           0        5.845235   -1.190853   -0.012570
     37          6           0        6.585491    0.021156   -0.070201
     38          7           0        7.961809    0.024529   -0.122795
     39          1           0       -6.813007   -0.032125   -0.180343
     40          9           0        0.164122    6.329015   -0.821111
     41          9           0        1.561974    4.845788   -0.078463
     42          9           0        0.351159    5.992134    1.303574
     43          9           0        1.600000   -4.815854    0.333542
     44          9           0        0.487574   -6.010889   -1.089708
     45          9           0        0.175966   -6.297350    1.027787
     46          1           0        3.910527    2.170366   -0.029839
     47          1           0        6.346824    2.191499   -0.112978
     48          1           0        6.361574   -2.150201   -0.005956
     49          1           0        3.925014   -2.141478    0.075718
     50          6           0        8.685382    1.280513   -0.185956
     51          6           0        8.693844   -1.228146   -0.124189
     52          1           0        8.491668    1.917745    0.696229
     53          1           0        8.422404    1.868758   -1.084316
     54          1           0        9.762669    1.077961   -0.222194
     55          1           0        8.432484   -1.862719   -0.990876
     56          1           0        8.506737   -1.821220    0.789689
     57          1           0        9.769630   -1.020470   -0.173730
 ---------------------------------------------------------------------

 SCF Done:  E(RB3LYP) =  -2156.59605289     A.U. after   15 cycles

 The electronic state is 1-A.
 Alpha  occ. eigenvalues --  -24.75748 -24.75746 -24.75598 -24.75597 -24.75430
 Alpha  occ. eigenvalues --  -24.75421 -24.75253 -24.75245 -14.43007 -14.43005
 Alpha  occ. eigenvalues --  -14.37490 -10.43535 -10.43534 -10.29116 -10.29115
 Alpha  occ. eigenvalues --  -10.26670 -10.26667 -10.25476 -10.25467 -10.23082
 Alpha  occ. eigenvalues --  -10.23077 -10.22741 -10.22739 -10.22118 -10.21606
 Alpha  occ. eigenvalues --  -10.21602 -10.20642 -10.20638 -10.20419 -10.20417
 Alpha  occ. eigenvalues --  -10.19773 -10.19065 -10.18720 -10.17886 -10.17882
 Alpha  occ. eigenvalues --  -10.17486 -10.17483 -10.14125 -10.13584  -3.94476
 Alpha  occ. eigenvalues --   -2.17251  -2.16965  -2.13485  -1.31225  -1.31224
 Alpha  occ. eigenvalues --   -1.24194  -1.24149  -1.22132  -1.22129  -1.21665
 Alpha  occ. eigenvalues --   -1.21662  -1.01039  -1.00826  -0.96106  -0.90619
 Alpha  occ. eigenvalues --   -0.87018  -0.86581  -0.86425  -0.85035  -0.84057
 Alpha  occ. eigenvalues --   -0.79399  -0.79376  -0.78585  -0.77064  -0.74342
 Alpha  occ. eigenvalues --   -0.74262  -0.73667  -0.72701  -0.70129  -0.69249
 Alpha  occ. eigenvalues --   -0.68591  -0.67965  -0.67717  -0.65203  -0.64963
 Alpha  occ. eigenvalues --   -0.62290  -0.62028  -0.61526  -0.60698  -0.60688
 Alpha  occ. eigenvalues --   -0.60497  -0.60494  -0.59909  -0.59278  -0.57705
 Alpha  occ. eigenvalues --   -0.57184  -0.55682  -0.55055  -0.54945  -0.54211
 Alpha  occ. eigenvalues --   -0.52936  -0.51277  -0.50854  -0.50848  -0.50190
 Alpha  occ. eigenvalues --   -0.49963  -0.49431  -0.49404  -0.48761  -0.48147
 Alpha  occ. eigenvalues --   -0.47978  -0.47870  -0.47705  -0.47647  -0.47429
 Alpha  occ. eigenvalues --   -0.47324  -0.46992  -0.46554  -0.46457  -0.45529
 Alpha  occ. eigenvalues --   -0.45360  -0.44113  -0.44094  -0.44052  -0.43817
 Alpha  occ. eigenvalues --   -0.43776  -0.42757  -0.42418  -0.42355  -0.41838
 Alpha  occ. eigenvalues --   -0.41797  -0.41763  -0.41607  -0.41023  -0.40522
 Alpha  occ. eigenvalues --   -0.40002  -0.39976  -0.39804  -0.39600  -0.39260
 Alpha  occ. eigenvalues --   -0.38038  -0.36118  -0.35933  -0.35109  -0.34379
 Alpha  occ. eigenvalues --   -0.33474  -0.32371  -0.31258  -0.30982  -0.30310
 Alpha  occ. eigenvalues --   -0.27415  -0.27283  -0.27251  -0.25604  -0.25234
 Alpha  occ. eigenvalues --   -0.24549  -0.24447  -0.20023
 Alpha virt. eigenvalues --   -0.10822  -0.10237  -0.07390  -0.06816  -0.03638
 Alpha virt. eigenvalues --   -0.02313  -0.01772  -0.01471  -0.00234   0.02183
 Alpha virt. eigenvalues --    0.03335   0.03704   0.05614   0.05842   0.08967

 Mulliken charges:
               1
     1  Pt   1.589126
     2  C   -0.440235
     3  N    0.454664
     4  N    0.454728
     5  C   -0.489653
     6  C   -0.489354
     7  C   -0.389110
     8  C   -0.389050
     9  C    0.291171
    10  C    0.291257
    11  C    0.057635
    12  C    0.156707
    13  C    0.225862
    14  C    0.256394
    15  C    0.057657
    16  C   -0.109700
    17  C    0.156591
    18  C    0.225750
    19  H   -0.112625
    20  C    0.256497
    21  C   -0.256610
    22  F   -0.222740
    23  F   -0.222746
    24  H   -0.023547
    25  C    0.293895
    26  H   -0.072458
    27  H   -0.023627
    28  C    0.293941
    29  H   -0.112630
    30  H   -0.072350
    31  C    0.028504
    32  C    0.021645
    33  C    0.014168
    34  C    0.014103
    35  C    0.070408
    36  C    0.070345
    37  C   -0.409497
    38  N    0.852313
    39  H   -0.055155
    40  F   -0.230167
    41  F   -0.231387
    42  F   -0.228802
    43  F   -0.231400
    44  F   -0.228860
    45  F   -0.230104
    46  H   -0.132868
    47  H   -0.090507
    48  H   -0.090503
    49  H   -0.132904
    50  C   -0.345429
    51  C   -0.345372
    52  H    0.044697
    53  H    0.044297
    54  H    0.049033
    55  H    0.044425
    56  H    0.044583
    57  H    0.048994
 Sum of Mulliken charges =  -0.00000

 Dipole moment (field-independent basis, Debye):
    X=             -4.5692    Y=             -0.0301    Z=             -0.3963  Tot=              4.5864
 Quadrupole moment (field-independent basis, Debye-Ang):
   XX=           -180.4140   YY=           -221.6800   ZZ=           -259.7321
   XY=              0.1051   XZ=             -1.0370   YZ=             -0.8122

  Exact polarizability:     878.004       0.341     686.874       3.074      -2.714     256.057
 Approx polarizability:     972.578       0.394     787.082       5.654      -3.450     313.027

 Normal termination of Gaussian 16 at Tue Jul 30 15:01:26 2024.
