 Gaussian 09, Revision D.01,
 Gaussian 09:  EM64L-G09RevD.01 24-Apr-2013

 ----------------------------------------------------------------------
 #p B3LYP/gen gfinput pseudo=read Integral(Grid=UltraFine,Acc2E=12) scf
 =maxcycle=200 Polar=(DCSHG) CPHF=RdFreq scrf=(iefpcm,read,solvent=n,n-
 DiMethylFormamide)
 ----------------------------------------------------------------------

 ------------------------------
 Primeira Hiperpolarizabilidade
 ------------------------------
 Symbolic Z-matrix:
 Charge =  0 Multiplicity = 1

                         Standard orientation:
 ---------------------------------------------------------------------
 Center     Atomic      Atomic             Coordinates (Angstroms)
 Number     Number       Type             X           Y           Z
 ---------------------------------------------------------------------
      1         78           0       -1.008098   -0.002554    0.023564
      2          6           0        1.040778    0.006667    0.073725
      3          7           0       -1.351872   -2.030588    0.021851
      4          7           0       -1.371945    2.022246    0.008714
      5          6           0       -0.428755    2.975399    0.046602
      6          6           0       -0.398749   -2.973631    0.063676
      7          6           0       -2.709059    2.370497   -0.042286
      8          6           0       -2.685437   -2.392870   -0.022148
      9          6           0       -3.612802   -1.258328   -0.063032
     10          6           0       -3.625038    1.226485   -0.074159
     11          6           0       -5.026887    1.184638   -0.123314
     12          6           0       -3.072336    3.724957   -0.058798
     13          6           0       -2.092344    4.709726   -0.020417
     14          6           0       -0.744979    4.330839    0.035451
     15          6           0       -5.014989   -1.230646   -0.112194
     16          6           0       -5.723602   -0.026574   -0.142658
     17          6           0       -3.034925   -3.751150   -0.020208
     18          6           0       -2.044755   -4.725434    0.024916
     19          1           0       -4.086756   -4.028898   -0.051962
     20          6           0       -0.700943   -4.332187    0.066180
     21          6           0       -2.958548   -0.012536   -0.045884
     22          9           0       -5.721231   -2.369921   -0.130392
     23          9           0       -5.744306    2.316719   -0.152261
     24          1           0        0.628075   -2.608296    0.098527
     25          6           0        0.398456   -5.362280    0.086817
     26          1           0       -2.317869   -5.782506    0.030833
     27          1           0        0.601877    2.621014    0.083278
     28          6           0        0.341059    5.372771    0.108014
     29          1           0       -4.126636    3.991341   -0.102923
     30          1           0       -2.375743    5.763900   -0.037457
     31          6           0        2.277388    0.010047    0.060642
     32          6           0        3.707803    0.013889    0.028194
     33          6           0        4.447523    1.218101   -0.023999
     34          6           0        4.455580   -1.186484    0.034584
     35          6           0        5.837091    1.229508   -0.071927
     36          6           0        5.845235   -1.190853   -0.012570
     37          6           0        6.585491    0.021156   -0.070201
     38          7           0        7.961809    0.024529   -0.122795
     39          1           0       -6.813007   -0.032125   -0.180343
     40          9           0        0.164122    6.329015   -0.821111
     41          9           0        1.561974    4.845788   -0.078463
     42          9           0        0.351159    5.992134    1.303574
     43          9           0        1.600000   -4.815854    0.333542
     44          9           0        0.487574   -6.010889   -1.089708
     45          9           0        0.175966   -6.297350    1.027787
     46          1           0        3.910527    2.170366   -0.029839
     47          1           0        6.346824    2.191499   -0.112978
     48          1           0        6.361574   -2.150201   -0.005956
     49          1           0        3.925014   -2.141478    0.075718
     50          6           0        8.685382    1.280513   -0.185956
     51          6           0        8.693844   -1.228146   -0.124189
     52          1           0        8.491668    1.917745    0.696229
     53          1           0        8.422404    1.868758   -1.084316
     54          1           0        9.762669    1.077961   -0.222194
     55          1           0        8.432484   -1.862719   -0.990876
     56          1           0        8.506737   -1.821220    0.789689
     57          1           0        9.769630   -1.020470   -0.173730
 ---------------------------------------------------------------------

 SCF Done:  E(RB3LYP) =  -2149.51794484     A.U. after   16 cycles

 The electronic state is 1-A.
 Alpha  occ. eigenvalues --  -24.93436 -24.93436 -24.93016 -24.93004 -24.92776
 Alpha  occ. eigenvalues --  -24.92767 -24.90517 -24.90516 -14.26205 -14.26203
 Alpha  occ. eigenvalues --  -14.19382 -10.42303 -10.42297 -10.22732 -10.22730
 Alpha  occ. eigenvalues --  -10.18914 -10.18912 -10.17801 -10.17792 -10.15975
 Alpha  occ. eigenvalues --  -10.15972 -10.15482 -10.15478 -10.13897 -10.13894
 Alpha  occ. eigenvalues --  -10.13706 -10.13278 -10.13276 -10.13023 -10.11492
 Alpha  occ. eigenvalues --  -10.11487 -10.11023 -10.10308 -10.09426 -10.09422
 Alpha  occ. eigenvalues --  -10.08817 -10.08814 -10.06274 -10.05243  -3.94464
 Alpha  occ. eigenvalues --   -2.17172  -2.16776  -2.13629  -1.27207  -1.27167
 Alpha  occ. eigenvalues --   -1.14854  -1.14739  -1.14587  -1.14570  -1.14018
 Alpha  occ. eigenvalues --   -1.14015  -0.99188  -0.99030  -0.93425  -0.88020
 Alpha  occ. eigenvalues --   -0.85493  -0.84884  -0.82849  -0.82737  -0.81683
 Alpha  occ. eigenvalues --   -0.77498  -0.77453  -0.75321  -0.73780  -0.73086
 Alpha  occ. eigenvalues --   -0.72874  -0.70984  -0.70348  -0.69812  -0.69646
 Alpha  occ. eigenvalues --   -0.69218  -0.68636  -0.67017  -0.67015  -0.66997
 Alpha  occ. eigenvalues --   -0.66468  -0.65352  -0.65223  -0.64789  -0.63831
 Alpha  occ. eigenvalues --   -0.63349  -0.61180  -0.59782  -0.59091  -0.58044
 Alpha  occ. eigenvalues --   -0.57878  -0.57623  -0.56576  -0.56258  -0.56142
 Alpha  occ. eigenvalues --   -0.56131  -0.55089  -0.55015  -0.54850  -0.54408
 Alpha  occ. eigenvalues --   -0.54054  -0.52820  -0.52817  -0.52606  -0.52589
 Alpha  occ. eigenvalues --   -0.51390  -0.51344  -0.51258  -0.51254  -0.50972
 Alpha  occ. eigenvalues --   -0.50641  -0.49741  -0.49278  -0.49241  -0.48432
 Alpha  occ. eigenvalues --   -0.47574  -0.47540  -0.47532  -0.47399  -0.46024
 Alpha  occ. eigenvalues --   -0.45691  -0.44896  -0.43968  -0.43933  -0.43830
 Alpha  occ. eigenvalues --   -0.42844  -0.42212  -0.41775  -0.41383  -0.41040
 Alpha  occ. eigenvalues --   -0.40998  -0.40814  -0.38870  -0.38781  -0.38651
 Alpha  occ. eigenvalues --   -0.37743  -0.36778  -0.35605  -0.35176  -0.34818
 Alpha  occ. eigenvalues --   -0.33608  -0.32731  -0.31161  -0.31044  -0.29712
 Alpha  occ. eigenvalues --   -0.28341  -0.27276  -0.26746  -0.26306  -0.25365
 Alpha  occ. eigenvalues --   -0.24334  -0.24292  -0.19393
 Alpha virt. eigenvalues --   -0.11473  -0.11274  -0.07881  -0.07662  -0.04386
 Alpha virt. eigenvalues --   -0.02212  -0.02120  -0.01917  -0.01844   0.01941
 Alpha virt. eigenvalues --    0.02639   0.02757   0.03931   0.04426   0.05195

 Mulliken charges:
               1
     1  Pt   3.206766
     2  C   -0.356506
     3  N   -0.317060
     4  N   -0.317161
     5  C   -0.293648
     6  C   -0.291854
     7  C    0.231640
     8  C    0.231883
     9  C    0.531724
    10  C    0.531651
    11  C    0.389224
    12  C    0.256623
    13  C    0.265681
    14  C    0.761589
    15  C    0.388819
    16  C   -0.252809
    17  C    0.256424
    18  C    0.263236
    19  H   -0.351000
    20  C    0.761425
    21  C    0.199759
    22  F   -0.952009
    23  F   -0.952233
    24  H   -0.042812
    25  C    1.285993
    26  H   -0.177559
    27  H   -0.041711
    28  C    1.284218
    29  H   -0.351383
    30  H   -0.178372
    31  C   -0.488352
    32  C    0.202480
    33  C   -0.077092
    34  C   -0.077336
    35  C    0.078798
    36  C    0.079093
    37  C    0.768445
    38  N    0.514330
    39  H   -0.220828
    40  F   -0.821275
    41  F   -0.922060
    42  F   -0.780963
    43  F   -0.924004
    44  F   -0.782260
    45  F   -0.818731
    46  H   -0.201014
    47  H   -0.200565
    48  H   -0.200620
    49  H   -0.201677
    50  C   -0.556215
    51  C   -0.556245
    52  H    0.108069
    53  H    0.108133
    54  H   -0.108415
    55  H    0.108611
    56  H    0.107654
    57  H   -0.108500
 Sum of Mulliken charges =   0.00000

 Dipole moment (field-independent basis, Debye):
    X=             -4.4641    Y=             -0.0341    Z=             -0.4961  Tot=              4.4917
 Quadrupole moment (field-independent basis, Debye-Ang):
   XX=           -194.7037   YY=           -264.7396   ZZ=           -264.2563
   XY=              0.2306   XZ=             -1.9685   YZ=             -0.6651

  Exact polarizability: 992.817   0.482 757.883   2.980  -2.813 300.617
 Approx polarizability:1052.714   0.539 827.590   5.194  -3.468 355.436

 Normal termination of Gaussian 09 at Fri May 19 22:26:36 2023.
