 Gaussian 16, Revision C.01,
 Gaussian 16:  EM64L-G16RevC.01  3-Jul-2019

 ----------------------------------------------------------------------
 #p O3LYP/gen gfinput pseudo=read scf=maxcycle=200 Polar=(DCSHG) CPHF=R
 dFreq scrf=(iefpcm,read,solvent=n,n-DiMethylFormamide)
 ----------------------------------------------------------------------

 ------------------------------
 Primeira Hiperpolarizabilidade
 ------------------------------
 Symbolic Z-matrix:
 Charge =  0 Multiplicity = 1

                         Standard orientation:
 ---------------------------------------------------------------------
 Center     Atomic      Atomic             Coordinates (Angstroms)
 Number     Number       Type             X           Y           Z
 ---------------------------------------------------------------------
      1         78           0       -1.008098   -0.002554    0.023564
      2          6           0        1.040778    0.006667    0.073725
      3          7           0       -1.351872   -2.030588    0.021851
      4          7           0       -1.371945    2.022246    0.008714
      5          6           0       -0.428755    2.975399    0.046602
      6          6           0       -0.398749   -2.973631    0.063676
      7          6           0       -2.709059    2.370497   -0.042286
      8          6           0       -2.685437   -2.392870   -0.022148
      9          6           0       -3.612802   -1.258328   -0.063032
     10          6           0       -3.625038    1.226485   -0.074159
     11          6           0       -5.026887    1.184638   -0.123314
     12          6           0       -3.072336    3.724957   -0.058798
     13          6           0       -2.092344    4.709726   -0.020417
     14          6           0       -0.744979    4.330839    0.035451
     15          6           0       -5.014989   -1.230646   -0.112194
     16          6           0       -5.723602   -0.026574   -0.142658
     17          6           0       -3.034925   -3.751150   -0.020208
     18          6           0       -2.044755   -4.725434    0.024916
     19          1           0       -4.086756   -4.028898   -0.051962
     20          6           0       -0.700943   -4.332187    0.066180
     21          6           0       -2.958548   -0.012536   -0.045884
     22          9           0       -5.721231   -2.369921   -0.130392
     23          9           0       -5.744306    2.316719   -0.152261
     24          1           0        0.628075   -2.608296    0.098527
     25          6           0        0.398456   -5.362280    0.086817
     26          1           0       -2.317869   -5.782506    0.030833
     27          1           0        0.601877    2.621014    0.083278
     28          6           0        0.341059    5.372771    0.108014
     29          1           0       -4.126636    3.991341   -0.102923
     30          1           0       -2.375743    5.763900   -0.037457
     31          6           0        2.277388    0.010047    0.060642
     32          6           0        3.707803    0.013889    0.028194
     33          6           0        4.447523    1.218101   -0.023999
     34          6           0        4.455580   -1.186484    0.034584
     35          6           0        5.837091    1.229508   -0.071927
     36          6           0        5.845235   -1.190853   -0.012570
     37          6           0        6.585491    0.021156   -0.070201
     38          7           0        7.961809    0.024529   -0.122795
     39          1           0       -6.813007   -0.032125   -0.180343
     40          9           0        0.164122    6.329015   -0.821111
     41          9           0        1.561974    4.845788   -0.078463
     42          9           0        0.351159    5.992134    1.303574
     43          9           0        1.600000   -4.815854    0.333542
     44          9           0        0.487574   -6.010889   -1.089708
     45          9           0        0.175966   -6.297350    1.027787
     46          1           0        3.910527    2.170366   -0.029839
     47          1           0        6.346824    2.191499   -0.112978
     48          1           0        6.361574   -2.150201   -0.005956
     49          1           0        3.925014   -2.141478    0.075718
     50          6           0        8.685382    1.280513   -0.185956
     51          6           0        8.693844   -1.228146   -0.124189
     52          1           0        8.491668    1.917745    0.696229
     53          1           0        8.422404    1.868758   -1.084316
     54          1           0        9.762669    1.077961   -0.222194
     55          1           0        8.432484   -1.862719   -0.990876
     56          1           0        8.506737   -1.821220    0.789689
     57          1           0        9.769630   -1.020470   -0.173730
 ---------------------------------------------------------------------

 SCF Done:  E(RO3LYP) =  -2157.36694004     A.U. after   15 cycles

 The electronic state is 1-A.
 Alpha  occ. eigenvalues --  -24.53994 -24.53989 -24.53563 -24.53553 -24.53372
 Alpha  occ. eigenvalues --  -24.53364 -24.53328 -24.53326 -14.27370 -14.27368
 Alpha  occ. eigenvalues --  -14.21403 -10.32213 -10.32213 -10.18139 -10.18138
 Alpha  occ. eigenvalues --  -10.15319 -10.15316 -10.14166 -10.14158 -10.11735
 Alpha  occ. eigenvalues --  -10.11730 -10.11523 -10.11521 -10.10772 -10.10429
 Alpha  occ. eigenvalues --  -10.10425 -10.09630 -10.09624 -10.09581 -10.09580
 Alpha  occ. eigenvalues --  -10.08995 -10.08548 -10.07520 -10.06785 -10.06783
 Alpha  occ. eigenvalues --  -10.06140 -10.06139 -10.03218 -10.02839  -3.87068
 Alpha  occ. eigenvalues --   -2.11485  -2.11138  -2.07855  -1.27169  -1.27168
 Alpha  occ. eigenvalues --   -1.19837  -1.19788  -1.18218  -1.18217  -1.17716
 Alpha  occ. eigenvalues --   -1.17714  -0.96184  -0.95803  -0.91489  -0.85571
 Alpha  occ. eigenvalues --   -0.82041  -0.81973  -0.81182  -0.79795  -0.78568
 Alpha  occ. eigenvalues --   -0.74293  -0.74245  -0.73124  -0.71496  -0.69518
 Alpha  occ. eigenvalues --   -0.68958  -0.68718  -0.67192  -0.65395  -0.64845
 Alpha  occ. eigenvalues --   -0.64309  -0.63664  -0.62651  -0.60822  -0.60294
 Alpha  occ. eigenvalues --   -0.57910  -0.57776  -0.57603  -0.57597  -0.57457
 Alpha  occ. eigenvalues --   -0.57248  -0.56959  -0.55722  -0.55285  -0.53365
 Alpha  occ. eigenvalues --   -0.53002  -0.51194  -0.51106  -0.50333  -0.49663
 Alpha  occ. eigenvalues --   -0.48025  -0.47391  -0.46644  -0.46356  -0.46075
 Alpha  occ. eigenvalues --   -0.46030  -0.45659  -0.45306  -0.45070  -0.45046
 Alpha  occ. eigenvalues --   -0.44779  -0.44625  -0.44053  -0.43863  -0.43620
 Alpha  occ. eigenvalues --   -0.43510  -0.42863  -0.42739  -0.42119  -0.41749
 Alpha  occ. eigenvalues --   -0.41197  -0.41172  -0.40979  -0.40926  -0.40566
 Alpha  occ. eigenvalues --   -0.39643  -0.39093  -0.39086  -0.38668  -0.38525
 Alpha  occ. eigenvalues --   -0.38193  -0.38060  -0.37700  -0.37029  -0.36711
 Alpha  occ. eigenvalues --   -0.36493  -0.36096  -0.35708  -0.35640  -0.35535
 Alpha  occ. eigenvalues --   -0.33968  -0.32897  -0.31828  -0.31747  -0.31446
 Alpha  occ. eigenvalues --   -0.30143  -0.29395  -0.28100  -0.27892  -0.26875
 Alpha  occ. eigenvalues --   -0.24855  -0.24277  -0.24232  -0.23059  -0.22737
 Alpha  occ. eigenvalues --   -0.21575  -0.21433  -0.16987
 Alpha virt. eigenvalues --   -0.09965  -0.09561  -0.06613  -0.06295  -0.03143
 Alpha virt. eigenvalues --   -0.02253  -0.01544  -0.01246  -0.00141   0.01775
 Alpha virt. eigenvalues --    0.02694   0.03060   0.05329   0.05688   0.05846

 Mulliken charges:
               1
     1  Pt   0.849717
     2  C   -0.479744
     3  N   -0.458660
     4  N   -0.458643
     5  C    0.223315
     6  C    0.223201
     7  C    0.208765
     8  C    0.208851
     9  C   -0.041882
    10  C   -0.041728
    11  C    0.304646
    12  C   -0.028350
    13  C    0.138391
    14  C   -0.237238
    15  C    0.304617
    16  C   -0.152234
    17  C   -0.028299
    18  C    0.138305
    19  H    0.021067
    20  C   -0.237170
    21  C   -0.371350
    22  F   -0.193803
    23  F   -0.193819
    24  H    0.066001
    25  C    0.631081
    26  H    0.027639
    27  H    0.065812
    28  C    0.631042
    29  H    0.021056
    30  H    0.027574
    31  C   -0.101964
    32  C   -0.085713
    33  C    0.013956
    34  C    0.013821
    35  C   -0.082102
    36  C   -0.082061
    37  C    0.220246
    38  N   -0.420117
    39  H    0.012976
    40  F   -0.183266
    41  F   -0.175161
    42  F   -0.182732
    43  F   -0.175058
    44  F   -0.182858
    45  F   -0.183396
    46  H   -0.020070
    47  H   -0.014733
    48  H   -0.014735
    49  H   -0.020062
    50  C    0.158103
    51  C    0.158122
    52  H    0.028458
    53  H    0.028199
    54  H    0.032662
    55  H    0.028279
    56  H    0.028380
    57  H    0.032666
 Sum of Mulliken charges =  -0.00000

 Dipole moment (field-independent basis, Debye):
    X=             -3.3419    Y=             -0.0269    Z=             -0.4241  Tot=              3.3688
 Quadrupole moment (field-independent basis, Debye-Ang):
   XX=           -161.8379   YY=           -217.4330   ZZ=           -248.3493
   XY=              0.1659   XZ=             -1.2917   YZ=             -0.9757

  Exact polarizability:     975.227       0.568     708.838       2.531      -3.045     242.291
 Approx polarizability:    1163.978       0.703     872.785       5.760      -4.258     303.697

 Normal termination of Gaussian 16 at Sat May  6 17:38:06 2023.
