 Gaussian 09, Revision D.01,
 Gaussian 09:  EM64L-G09RevD.01 24-Apr-2013

 ----------------------------------------------------------------------
 #p PBEPBE/gen gfinput pseudo=read Integral(Grid=UltraFine,Acc2E=12) sc
 f=maxcycle=200 Polar=(DCSHG) CPHF=RdFreq scrf=(iefpcm,read,solvent=n,n
 -DiMethylFormamide)
 ----------------------------------------------------------------------

 ------------------------------
 Primeira Hiperpolarizabilidade
 ------------------------------
 Symbolic Z-matrix:
 Charge =  0 Multiplicity = 1

                         Standard orientation:
 ---------------------------------------------------------------------
 Center     Atomic      Atomic             Coordinates (Angstroms)
 Number     Number       Type             X           Y           Z
 ---------------------------------------------------------------------
      1         78           0       -1.008098   -0.002554    0.023564
      2          6           0        1.040778    0.006667    0.073725
      3          7           0       -1.351872   -2.030588    0.021851
      4          7           0       -1.371945    2.022246    0.008714
      5          6           0       -0.428755    2.975399    0.046602
      6          6           0       -0.398749   -2.973631    0.063676
      7          6           0       -2.709059    2.370497   -0.042286
      8          6           0       -2.685437   -2.392870   -0.022148
      9          6           0       -3.612802   -1.258328   -0.063032
     10          6           0       -3.625038    1.226485   -0.074159
     11          6           0       -5.026887    1.184638   -0.123314
     12          6           0       -3.072336    3.724957   -0.058798
     13          6           0       -2.092344    4.709726   -0.020417
     14          6           0       -0.744979    4.330839    0.035451
     15          6           0       -5.014989   -1.230646   -0.112194
     16          6           0       -5.723602   -0.026574   -0.142658
     17          6           0       -3.034925   -3.751150   -0.020208
     18          6           0       -2.044755   -4.725434    0.024916
     19          1           0       -4.086756   -4.028898   -0.051962
     20          6           0       -0.700943   -4.332187    0.066180
     21          6           0       -2.958548   -0.012536   -0.045884
     22          9           0       -5.721231   -2.369921   -0.130392
     23          9           0       -5.744306    2.316719   -0.152261
     24          1           0        0.628075   -2.608296    0.098527
     25          6           0        0.398456   -5.362280    0.086817
     26          1           0       -2.317869   -5.782506    0.030833
     27          1           0        0.601877    2.621014    0.083278
     28          6           0        0.341059    5.372771    0.108014
     29          1           0       -4.126636    3.991341   -0.102923
     30          1           0       -2.375743    5.763900   -0.037457
     31          6           0        2.277388    0.010047    0.060642
     32          6           0        3.707803    0.013889    0.028194
     33          6           0        4.447523    1.218101   -0.023999
     34          6           0        4.455580   -1.186484    0.034584
     35          6           0        5.837091    1.229508   -0.071927
     36          6           0        5.845235   -1.190853   -0.012570
     37          6           0        6.585491    0.021156   -0.070201
     38          7           0        7.961809    0.024529   -0.122795
     39          1           0       -6.813007   -0.032125   -0.180343
     40          9           0        0.164122    6.329015   -0.821111
     41          9           0        1.561974    4.845788   -0.078463
     42          9           0        0.351159    5.992134    1.303574
     43          9           0        1.600000   -4.815854    0.333542
     44          9           0        0.487574   -6.010889   -1.089708
     45          9           0        0.175966   -6.297350    1.027787
     46          1           0        3.910527    2.170366   -0.029839
     47          1           0        6.346824    2.191499   -0.112978
     48          1           0        6.361574   -2.150201   -0.005956
     49          1           0        3.925014   -2.141478    0.075718
     50          6           0        8.685382    1.280513   -0.185956
     51          6           0        8.693844   -1.228146   -0.124189
     52          1           0        8.491668    1.917745    0.696229
     53          1           0        8.422404    1.868758   -1.084316
     54          1           0        9.762669    1.077961   -0.222194
     55          1           0        8.432484   -1.862719   -0.990876
     56          1           0        8.506737   -1.821220    0.789689
     57          1           0        9.769630   -1.020470   -0.173730
 ---------------------------------------------------------------------

 SCF Done:  E(RPBE-PBE) =  -2155.70823909     A.U. after   16 cycles

 The electronic state is 1-A.
 Alpha  occ. eigenvalues --  -24.30371 -24.30366 -24.29987 -24.29985 -24.29938
 Alpha  occ. eigenvalues --  -24.29928 -24.29743 -24.29735 -14.07965 -14.07964
 Alpha  occ. eigenvalues --  -14.02576 -10.14184 -10.14184 -10.00786 -10.00784
 Alpha  occ. eigenvalues --   -9.97967  -9.97964  -9.96886  -9.96878  -9.94465
 Alpha  occ. eigenvalues --   -9.94463  -9.94444  -9.94444  -9.93819  -9.93433
 Alpha  occ. eigenvalues --   -9.93428  -9.92723  -9.92716  -9.92598  -9.92597
 Alpha  occ. eigenvalues --   -9.92003  -9.91456  -9.90774  -9.89934  -9.89931
 Alpha  occ. eigenvalues --   -9.89413  -9.89412  -9.86844  -9.86379  -3.79015
 Alpha  occ. eigenvalues --   -2.05687  -2.05289  -2.02058  -1.20188  -1.20188
 Alpha  occ. eigenvalues --   -1.13169  -1.13121  -1.11295  -1.11294  -1.10793
 Alpha  occ. eigenvalues --   -1.10791  -0.90900  -0.90530  -0.86570  -0.80551
 Alpha  occ. eigenvalues --   -0.77092  -0.77033  -0.76467  -0.74991  -0.73816
 Alpha  occ. eigenvalues --   -0.69675  -0.69576  -0.68780  -0.67221  -0.65068
 Alpha  occ. eigenvalues --   -0.64643  -0.64474  -0.63137  -0.61391  -0.60626
 Alpha  occ. eigenvalues --   -0.60252  -0.59571  -0.58847  -0.56935  -0.56477
 Alpha  occ. eigenvalues --   -0.54133  -0.54047  -0.53682  -0.53643  -0.53641
 Alpha  occ. eigenvalues --   -0.53627  -0.53243  -0.52244  -0.51839  -0.49955
 Alpha  occ. eigenvalues --   -0.49478  -0.48184  -0.47814  -0.47165  -0.46377
 Alpha  occ. eigenvalues --   -0.45143  -0.44045  -0.43674  -0.43655  -0.42835
 Alpha  occ. eigenvalues --   -0.42584  -0.42527  -0.42124  -0.41440  -0.41276
 Alpha  occ. eigenvalues --   -0.41203  -0.40870  -0.40865  -0.40849  -0.40697
 Alpha  occ. eigenvalues --   -0.40671  -0.39746  -0.39712  -0.39298  -0.38849
 Alpha  occ. eigenvalues --   -0.38082  -0.37410  -0.37357  -0.37062  -0.36995
 Alpha  occ. eigenvalues --   -0.36964  -0.35780  -0.35713  -0.35618  -0.35097
 Alpha  occ. eigenvalues --   -0.35016  -0.35011  -0.34737  -0.34274  -0.34053
 Alpha  occ. eigenvalues --   -0.33755  -0.33547  -0.33250  -0.33091  -0.32924
 Alpha  occ. eigenvalues --   -0.31555  -0.30918  -0.29990  -0.29622  -0.29409
 Alpha  occ. eigenvalues --   -0.28236  -0.27613  -0.26342  -0.25852  -0.24991
 Alpha  occ. eigenvalues --   -0.23282  -0.22850  -0.22815  -0.21470  -0.21065
 Alpha  occ. eigenvalues --   -0.20121  -0.19902  -0.15961
 Alpha virt. eigenvalues --   -0.11546  -0.11000  -0.08487  -0.08190  -0.05009
 Alpha virt. eigenvalues --   -0.04475  -0.03647  -0.03169  -0.02253   0.00959
 Alpha virt. eigenvalues --    0.01881   0.02273   0.03237   0.03704   0.04009

 Mulliken charges:
               1
     1  Pt   0.703010
     2  C   -0.482279
     3  N   -0.321675
     4  N   -0.321662
     5  C    0.147100
     6  C    0.147107
     7  C    0.151884
     8  C    0.151951
     9  C    0.034891
    10  C    0.035030
    11  C    0.225792
    12  C   -0.040931
    13  C    0.094058
    14  C   -0.145601
    15  C    0.225753
    16  C   -0.153647
    17  C   -0.040848
    18  C    0.093948
    19  H    0.021649
    20  C   -0.145482
    21  C   -0.399823
    22  F   -0.143191
    23  F   -0.143204
    24  H    0.049620
    25  C    0.467002
    26  H    0.035062
    27  H    0.049719
    28  C    0.467025
    29  H    0.021627
    30  H    0.034931
    31  C   -0.061868
    32  C   -0.023967
    33  C   -0.024119
    34  C   -0.024189
    35  C   -0.079226
    36  C   -0.079174
    37  C    0.183776
    38  N   -0.289058
    39  H    0.019788
    40  F   -0.138900
    41  F   -0.129631
    42  F   -0.138210
    43  F   -0.129487
    44  F   -0.138347
    45  F   -0.139032
    46  H   -0.014111
    47  H   -0.016185
    48  H   -0.016190
    49  H   -0.014142
    50  C    0.081552
    51  C    0.081574
    52  H    0.044196
    53  H    0.043941
    54  H    0.047026
    55  H    0.043994
    56  H    0.044144
    57  H    0.047031
 Sum of Mulliken charges =   0.00000

 Dipole moment (field-independent basis, Debye):
    X=             -2.1686    Y=             -0.0231    Z=             -0.4378  Tot=              2.2125
 Quadrupole moment (field-independent basis, Debye-Ang):
   XX=           -153.7918   YY=           -217.6412   ZZ=           -249.1869
   XY=              0.1951   XZ=             -1.3341   YZ=             -0.9692

  Exact polarizability:1184.209   1.051 763.286   1.760  -3.152 248.732
 Approx polarizability:1697.990   1.6211102.973   6.104  -5.262 336.738

 Normal termination of Gaussian 09 at Sat Feb  4 07:28:40 2023.
