 Gaussian 09, Revision D.01,
 Gaussian 09:  EM64L-G09RevD.01 24-Apr-2013

 ----------------------------------------------------------------------
 #p PBE1PBE/gen gfinput pseudo=read Integral(Grid=UltraFine,Acc2E=12) s
 cf=maxcycle=200 Polar=(DCSHG) CPHF=RdFreq scrf=(iefpcm,read,solvent=n,
 n-DiMethylFormamide)
 ----------------------------------------------------------------------

 ------------------------------
 Primeira Hiperpolarizabilidade
 ------------------------------
 Symbolic Z-matrix:
 Charge =  0 Multiplicity = 1

                         Standard orientation:
 ---------------------------------------------------------------------
 Center     Atomic      Atomic             Coordinates (Angstroms)
 Number     Number       Type             X           Y           Z
 ---------------------------------------------------------------------
      1         78           0       -1.008098   -0.002554    0.023564
      2          6           0        1.040778    0.006667    0.073725
      3          7           0       -1.351872   -2.030588    0.021851
      4          7           0       -1.371945    2.022246    0.008714
      5          6           0       -0.428755    2.975399    0.046602
      6          6           0       -0.398749   -2.973631    0.063676
      7          6           0       -2.709059    2.370497   -0.042286
      8          6           0       -2.685437   -2.392870   -0.022148
      9          6           0       -3.612802   -1.258328   -0.063032
     10          6           0       -3.625038    1.226485   -0.074159
     11          6           0       -5.026887    1.184638   -0.123314
     12          6           0       -3.072336    3.724957   -0.058798
     13          6           0       -2.092344    4.709726   -0.020417
     14          6           0       -0.744979    4.330839    0.035451
     15          6           0       -5.014989   -1.230646   -0.112194
     16          6           0       -5.723602   -0.026574   -0.142658
     17          6           0       -3.034925   -3.751150   -0.020208
     18          6           0       -2.044755   -4.725434    0.024916
     19          1           0       -4.086756   -4.028898   -0.051962
     20          6           0       -0.700943   -4.332187    0.066180
     21          6           0       -2.958548   -0.012536   -0.045884
     22          9           0       -5.721231   -2.369921   -0.130392
     23          9           0       -5.744306    2.316719   -0.152261
     24          1           0        0.628075   -2.608296    0.098527
     25          6           0        0.398456   -5.362280    0.086817
     26          1           0       -2.317869   -5.782506    0.030833
     27          1           0        0.601877    2.621014    0.083278
     28          6           0        0.341059    5.372771    0.108014
     29          1           0       -4.126636    3.991341   -0.102923
     30          1           0       -2.375743    5.763900   -0.037457
     31          6           0        2.277388    0.010047    0.060642
     32          6           0        3.707803    0.013889    0.028194
     33          6           0        4.447523    1.218101   -0.023999
     34          6           0        4.455580   -1.186484    0.034584
     35          6           0        5.837091    1.229508   -0.071927
     36          6           0        5.845235   -1.190853   -0.012570
     37          6           0        6.585491    0.021156   -0.070201
     38          7           0        7.961809    0.024529   -0.122795
     39          1           0       -6.813007   -0.032125   -0.180343
     40          9           0        0.164122    6.329015   -0.821111
     41          9           0        1.561974    4.845788   -0.078463
     42          9           0        0.351159    5.992134    1.303574
     43          9           0        1.600000   -4.815854    0.333542
     44          9           0        0.487574   -6.010889   -1.089708
     45          9           0        0.175966   -6.297350    1.027787
     46          1           0        3.910527    2.170366   -0.029839
     47          1           0        6.346824    2.191499   -0.112978
     48          1           0        6.361574   -2.150201   -0.005956
     49          1           0        3.925014   -2.141478    0.075718
     50          6           0        8.685382    1.280513   -0.185956
     51          6           0        8.693844   -1.228146   -0.124189
     52          1           0        8.491668    1.917745    0.696229
     53          1           0        8.422404    1.868758   -1.084316
     54          1           0        9.762669    1.077961   -0.222194
     55          1           0        8.432484   -1.862719   -0.990876
     56          1           0        8.506737   -1.821220    0.789689
     57          1           0        9.769630   -1.020470   -0.173730
 ---------------------------------------------------------------------

 SCF Done:  E(RPBE1PBE) =  -2155.74381855     A.U. after   15 cycles

 The electronic state is 1-A.
 Alpha  occ. eigenvalues --  -24.82144 -24.82139 -24.81683 -24.81672 -24.81473
 Alpha  occ. eigenvalues --  -24.81464 -24.81346 -24.81344 -14.48345 -14.48343
 Alpha  occ. eigenvalues --  -14.41837 -10.49761 -10.49761 -10.35699 -10.35697
 Alpha  occ. eigenvalues --  -10.32911 -10.32908 -10.31686 -10.31677 -10.29233
 Alpha  occ. eigenvalues --  -10.29229 -10.28954 -10.28952 -10.28122 -10.27767
 Alpha  occ. eigenvalues --  -10.27763 -10.26958 -10.26957 -10.26421 -10.26415
 Alpha  occ. eigenvalues --  -10.26281 -10.25914 -10.24779 -10.24078 -10.24077
 Alpha  occ. eigenvalues --  -10.23350 -10.23348 -10.20713 -10.20299  -3.97138
 Alpha  occ. eigenvalues --   -2.18902  -2.18586  -2.15320  -1.34445  -1.34444
 Alpha  occ. eigenvalues --   -1.26864  -1.26813  -1.25272  -1.25270  -1.24749
 Alpha  occ. eigenvalues --   -1.24748  -1.02230  -1.01826  -0.97109  -0.91308
 Alpha  occ. eigenvalues --   -0.87605  -0.87529  -0.86727  -0.85239  -0.83958
 Alpha  occ. eigenvalues --   -0.79538  -0.79494  -0.78274  -0.76553  -0.74563
 Alpha  occ. eigenvalues --   -0.73998  -0.73431  -0.72177  -0.70218  -0.69742
 Alpha  occ. eigenvalues --   -0.69071  -0.68484  -0.67279  -0.65501  -0.64937
 Alpha  occ. eigenvalues --   -0.62614  -0.62429  -0.62324  -0.62315  -0.62121
 Alpha  occ. eigenvalues --   -0.61645  -0.61614  -0.60111  -0.59555  -0.57809
 Alpha  occ. eigenvalues --   -0.57327  -0.55461  -0.55192  -0.54497  -0.53928
 Alpha  occ. eigenvalues --   -0.51988  -0.51840  -0.50733  -0.50684  -0.50366
 Alpha  occ. eigenvalues --   -0.50078  -0.49922  -0.49863  -0.49718  -0.49475
 Alpha  occ. eigenvalues --   -0.49369  -0.48937  -0.47815  -0.47795  -0.47616
 Alpha  occ. eigenvalues --   -0.47514  -0.47129  -0.46665  -0.45800  -0.45764
 Alpha  occ. eigenvalues --   -0.45749  -0.45594  -0.45576  -0.45417  -0.44074
 Alpha  occ. eigenvalues --   -0.43783  -0.43778  -0.43228  -0.42491  -0.42361
 Alpha  occ. eigenvalues --   -0.42182  -0.41445  -0.41099  -0.40680  -0.40280
 Alpha  occ. eigenvalues --   -0.40160  -0.39962  -0.39141  -0.38976  -0.38874
 Alpha  occ. eigenvalues --   -0.37429  -0.36088  -0.34928  -0.34839  -0.34446
 Alpha  occ. eigenvalues --   -0.33366  -0.32339  -0.31351  -0.31034  -0.30122
 Alpha  occ. eigenvalues --   -0.27605  -0.26988  -0.26868  -0.25834  -0.25738
 Alpha  occ. eigenvalues --   -0.24437  -0.24164  -0.19198
 Alpha virt. eigenvalues --   -0.09267  -0.08829  -0.05520  -0.05184  -0.02174
 Alpha virt. eigenvalues --   -0.00580  -0.00401  -0.00123   0.01255   0.03263
 Alpha virt. eigenvalues --    0.04178   0.04602   0.07131   0.07231   0.07572

 Mulliken charges:
               1
     1  Pt   0.872242
     2  C   -0.507617
     3  N   -0.436732
     4  N   -0.436699
     5  C    0.198822
     6  C    0.198818
     7  C    0.193582
     8  C    0.193661
     9  C   -0.040791
    10  C   -0.040640
    11  C    0.302632
    12  C   -0.056737
    13  C    0.103109
    14  C   -0.242385
    15  C    0.302603
    16  C   -0.178442
    17  C   -0.056623
    18  C    0.103014
    19  H    0.059919
    20  C   -0.242287
    21  C   -0.395880
    22  F   -0.198881
    23  F   -0.198897
    24  H    0.083893
    25  C    0.638079
    26  H    0.072070
    27  H    0.083960
    28  C    0.638092
    29  H    0.059904
    30  H    0.071967
    31  C   -0.111038
    32  C   -0.073390
    33  C   -0.022193
    34  C   -0.022298
    35  C   -0.113297
    36  C   -0.113249
    37  C    0.211126
    38  N   -0.406917
    39  H    0.057450
    40  F   -0.187430
    41  F   -0.179544
    42  F   -0.186931
    43  F   -0.179441
    44  F   -0.187045
    45  F   -0.187554
    46  H    0.020003
    47  H    0.018211
    48  H    0.018205
    49  H    0.019987
    50  C    0.062638
    51  C    0.062660
    52  H    0.057578
    53  H    0.057336
    54  H    0.063230
    55  H    0.057383
    56  H    0.057531
    57  H    0.063235
 Sum of Mulliken charges =   0.00000

 Dipole moment (field-independent basis, Debye):
    X=             -3.7077    Y=             -0.0283    Z=             -0.4334  Tot=              3.7330
 Quadrupole moment (field-independent basis, Debye-Ang):
   XX=           -161.6860   YY=           -216.2089   ZZ=           -250.4933
   XY=              0.1631   XZ=             -1.2766   YZ=             -1.0548

  Exact polarizability: 887.912   0.418 676.525   2.564  -2.955 244.212
 Approx polarizability: 920.746   0.446 726.090   4.714  -3.511 282.338

 Normal termination of Gaussian 09 at Sat Feb  4 07:00:46 2023.
