 Gaussian 16, Revision C.01,
 Gaussian 16:  EM64L-G16RevC.01  3-Jul-2019

 ----------------------------------------------------------------------
 #p B3LYP/gen gfinput Integral(Grid=UltraFine,Acc2E=12) scf=maxcycle=20
 0 Polar=(DCSHG) CPHF=RdFreq scrf=(iefpcm,solvent=n,n-DiMethylFormamide
 )
 ----------------------------------------------------------------------

 ------------------------------
 Primeira Hiperpolarizabilidade
 ------------------------------
 Symbolic Z-matrix:
 Charge =  0 Multiplicity = 1

                         Standard orientation:
 ---------------------------------------------------------------------
 Center     Atomic      Atomic             Coordinates (Angstroms)
 Number     Number       Type             X           Y           Z
 ---------------------------------------------------------------------
      1         78           0       -1.008098   -0.002554    0.023564
      2          6           0        1.040778    0.006667    0.073725
      3          7           0       -1.351872   -2.030588    0.021851
      4          7           0       -1.371945    2.022246    0.008714
      5          6           0       -0.428755    2.975399    0.046602
      6          6           0       -0.398749   -2.973631    0.063676
      7          6           0       -2.709059    2.370497   -0.042286
      8          6           0       -2.685437   -2.392870   -0.022148
      9          6           0       -3.612802   -1.258328   -0.063032
     10          6           0       -3.625038    1.226485   -0.074159
     11          6           0       -5.026887    1.184638   -0.123314
     12          6           0       -3.072336    3.724957   -0.058798
     13          6           0       -2.092344    4.709726   -0.020417
     14          6           0       -0.744979    4.330839    0.035451
     15          6           0       -5.014989   -1.230646   -0.112194
     16          6           0       -5.723602   -0.026574   -0.142658
     17          6           0       -3.034925   -3.751150   -0.020208
     18          6           0       -2.044755   -4.725434    0.024916
     19          1           0       -4.086756   -4.028898   -0.051962
     20          6           0       -0.700943   -4.332187    0.066180
     21          6           0       -2.958548   -0.012536   -0.045884
     22          9           0       -5.721231   -2.369921   -0.130392
     23          9           0       -5.744306    2.316719   -0.152261
     24          1           0        0.628075   -2.608296    0.098527
     25          6           0        0.398456   -5.362280    0.086817
     26          1           0       -2.317869   -5.782506    0.030833
     27          1           0        0.601877    2.621014    0.083278
     28          6           0        0.341059    5.372771    0.108014
     29          1           0       -4.126636    3.991341   -0.102923
     30          1           0       -2.375743    5.763900   -0.037457
     31          6           0        2.277388    0.010047    0.060642
     32          6           0        3.707803    0.013889    0.028194
     33          6           0        4.447523    1.218101   -0.023999
     34          6           0        4.455580   -1.186484    0.034584
     35          6           0        5.837091    1.229508   -0.071927
     36          6           0        5.845235   -1.190853   -0.012570
     37          6           0        6.585491    0.021156   -0.070201
     38          7           0        7.961809    0.024529   -0.122795
     39          1           0       -6.813007   -0.032125   -0.180343
     40          9           0        0.164122    6.329015   -0.821111
     41          9           0        1.561974    4.845788   -0.078463
     42          9           0        0.351159    5.992134    1.303574
     43          9           0        1.600000   -4.815854    0.333542
     44          9           0        0.487574   -6.010889   -1.089708
     45          9           0        0.175966   -6.297350    1.027787
     46          1           0        3.910527    2.170366   -0.029839
     47          1           0        6.346824    2.191499   -0.112978
     48          1           0        6.361574   -2.150201   -0.005956
     49          1           0        3.925014   -2.141478    0.075718
     50          6           0        8.685382    1.280513   -0.185956
     51          6           0        8.693844   -1.228146   -0.124189
     52          1           0        8.491668    1.917745    0.696229
     53          1           0        8.422404    1.868758   -1.084316
     54          1           0        9.762669    1.077961   -0.222194
     55          1           0        8.432484   -1.862719   -0.990876
     56          1           0        8.506737   -1.821220    0.789689
     57          1           0        9.769630   -1.020470   -0.173730
 ---------------------------------------------------------------------

 SCF Done:  E(RB3LYP) =  -19340.0746262     A.U. after   17 cycles

 The electronic state is 1-A.
 Alpha  occ. eigenvalues -- **********-434.57889-423.81326-423.81304-423.81265
 Alpha  occ. eigenvalues -- -102.32542 -96.23847 -96.23672 -96.23542 -81.64567
 Alpha  occ. eigenvalues --  -81.64514 -81.64493 -81.64449 -81.64432 -24.73365
 Alpha  occ. eigenvalues --  -24.73360 -24.72905 -24.72893 -24.72692 -24.72683
 Alpha  occ. eigenvalues --  -24.72430 -24.72427 -21.88543 -18.91607 -18.91354
 Alpha  occ. eigenvalues --  -18.90778 -14.40537 -14.40534 -14.34888 -11.24083
 Alpha  occ. eigenvalues --  -11.23553 -11.23263 -11.23080 -11.23041 -10.44917
 Alpha  occ. eigenvalues --  -10.44917 -10.30393 -10.30391 -10.27411 -10.27409
 Alpha  occ. eigenvalues --  -10.26404 -10.26395 -10.23984 -10.23979 -10.23679
 Alpha  occ. eigenvalues --  -10.23677 -10.23029 -10.22595 -10.22591 -10.21825
 Alpha  occ. eigenvalues --  -10.21818 -10.21545 -10.21543 -10.21174 -10.19823
 Alpha  occ. eigenvalues --  -10.19687 -10.19039 -10.19037 -10.18356 -10.18355
 Alpha  occ. eigenvalues --  -10.15495 -10.14534  -3.97053  -3.97019  -3.96705
 Alpha  occ. eigenvalues --   -3.96331  -3.96331  -3.96201  -3.96184  -3.26625
 Alpha  occ. eigenvalues --   -2.24979  -2.24891  -2.21841  -1.31003  -1.31003
 Alpha  occ. eigenvalues --   -1.23382  -1.23333  -1.21965  -1.21963  -1.21443
 Alpha  occ. eigenvalues --   -1.21441  -0.99034  -0.98690  -0.94309  -0.88322
 Alpha  occ. eigenvalues --   -0.84830  -0.84736  -0.84026  -0.82465  -0.81235
 Alpha  occ. eigenvalues --   -0.76926  -0.76875  -0.75821  -0.74208  -0.72101
 Alpha  occ. eigenvalues --   -0.71570  -0.71286  -0.69883  -0.67837  -0.67460
 Alpha  occ. eigenvalues --   -0.66831  -0.66244  -0.65228  -0.63365  -0.62759
 Alpha  occ. eigenvalues --   -0.60619  -0.60415  -0.60339  -0.60327  -0.60074
 Alpha  occ. eigenvalues --   -0.59726  -0.59636  -0.58048  -0.57670  -0.55866
 Alpha  occ. eigenvalues --   -0.55400  -0.53568  -0.53482  -0.52689  -0.52083
 Alpha  occ. eigenvalues --   -0.50225  -0.50040  -0.48851  -0.48757  -0.48647
 Alpha  occ. eigenvalues --   -0.48515  -0.48112  -0.48066  -0.48005  -0.47802
 Alpha  occ. eigenvalues --   -0.47650  -0.47315  -0.46383  -0.46222  -0.45856
 Alpha  occ. eigenvalues --   -0.45722  -0.45389  -0.45201  -0.44432  -0.44047
 Alpha  occ. eigenvalues --   -0.44040  -0.43929  -0.43891  -0.43827  -0.42707
 Alpha  occ. eigenvalues --   -0.42057  -0.42053  -0.41976  -0.40997  -0.40887
 Alpha  occ. eigenvalues --   -0.40618  -0.40395  -0.39943  -0.39134  -0.38890
 Alpha  occ. eigenvalues --   -0.38542  -0.38509  -0.37868  -0.37782  -0.37607
 Alpha  occ. eigenvalues --   -0.36318  -0.34698  -0.33899  -0.33412  -0.32993
 Alpha  occ. eigenvalues --   -0.32130  -0.30980  -0.30053  -0.29869  -0.29460
 Alpha  occ. eigenvalues --   -0.26325  -0.25797  -0.25694  -0.24421  -0.23567
 Alpha  occ. eigenvalues --   -0.23036  -0.22964  -0.18255
 Alpha virt. eigenvalues --   -0.09423  -0.08848  -0.05690  -0.05395  -0.02544
 Alpha virt. eigenvalues --   -0.00790  -0.00324   0.00386   0.00907   0.03715
 Alpha virt. eigenvalues --    0.05330   0.05824   0.06499   0.07253   0.07649

 Mulliken charges:
               1
     1  Pt   0.387784
     2  C   -0.248948
     3  N   -0.348308
     4  N   -0.348269
     5  C    0.152250
     6  C    0.152329
     7  C    0.169280
     8  C    0.169300
     9  C    0.038930
    10  C    0.038981
    11  C    0.235433
    12  C   -0.039955
    13  C    0.095383
    14  C   -0.128505
    15  C    0.235405
    16  C   -0.147033
    17  C   -0.039895
    18  C    0.095233
    19  H    0.016687
    20  C   -0.128396
    21  C   -0.154361
    22  F   -0.184964
    23  F   -0.184978
    24  H    0.044891
    25  C    0.559803
    26  H    0.032388
    27  H    0.044984
    28  C    0.559821
    29  H    0.016672
    30  H    0.032275
    31  C   -0.092496
    32  C   -0.037719
    33  C   -0.020171
    34  C   -0.020248
    35  C   -0.086459
    36  C   -0.086419
    37  C    0.208436
    38  N   -0.311958
    39  H    0.012665
    40  F   -0.174291
    41  F   -0.164994
    42  F   -0.173872
    43  F   -0.164862
    44  F   -0.173996
    45  F   -0.174425
    46  H   -0.022181
    47  H   -0.024307
    48  H   -0.024312
    49  H   -0.022203
    50  C    0.131410
    51  C    0.131433
    52  H    0.025950
    53  H    0.025678
    54  H    0.031746
    55  H    0.025738
    56  H    0.025890
    57  H    0.031751
 Sum of Mulliken charges =  -0.00000

 Dipole moment (field-independent basis, Debye):
    X=             -3.2273    Y=             -0.0260    Z=             -0.4186  Tot=              3.2545
 Quadrupole moment (field-independent basis, Debye-Ang):
   XX=           -172.1873   YY=           -227.3251   ZZ=           -255.1471
   XY=              0.1686   XZ=             -1.3305   YZ=             -1.0180

  Exact polarizability:     949.406       0.562     691.818       2.522      -3.031     245.937
 Approx polarizability:    1028.938       0.620     778.277       5.075      -3.785     297.248

 Normal termination of Gaussian 16 at Wed Apr 12 14:41:35 2023.
