 Gaussian 16, Revision C.01,
 Gaussian 16:  EM64L-G16RevC.01  3-Jul-2019

 ----------------------------------------------------------------------
 #p PW6B95/gen gfinput pseudo=read scf=maxcycle=200 Polar=(DCSHG) CPHF=
 RdFreq scrf=(iefpcm,read,solvent=n,n-DiMethylFormamide)
 ----------------------------------------------------------------------

 ------------------------------
 Primeira Hiperpolarizabilidade
 ------------------------------
 Symbolic Z-matrix:
 Charge =  0 Multiplicity = 1

                         Standard orientation:
 ---------------------------------------------------------------------
 Center     Atomic      Atomic             Coordinates (Angstroms)
 Number     Number       Type             X           Y           Z
 ---------------------------------------------------------------------
      1         78           0       -1.008098   -0.002554    0.023564
      2          6           0        1.040778    0.006667    0.073725
      3          7           0       -1.351872   -2.030588    0.021851
      4          7           0       -1.371945    2.022246    0.008714
      5          6           0       -0.428755    2.975399    0.046602
      6          6           0       -0.398749   -2.973631    0.063676
      7          6           0       -2.709059    2.370497   -0.042286
      8          6           0       -2.685437   -2.392870   -0.022148
      9          6           0       -3.612802   -1.258328   -0.063032
     10          6           0       -3.625038    1.226485   -0.074159
     11          6           0       -5.026887    1.184638   -0.123314
     12          6           0       -3.072336    3.724957   -0.058798
     13          6           0       -2.092344    4.709726   -0.020417
     14          6           0       -0.744979    4.330839    0.035451
     15          6           0       -5.014989   -1.230646   -0.112194
     16          6           0       -5.723602   -0.026574   -0.142658
     17          6           0       -3.034925   -3.751150   -0.020208
     18          6           0       -2.044755   -4.725434    0.024916
     19          1           0       -4.086756   -4.028898   -0.051962
     20          6           0       -0.700943   -4.332187    0.066180
     21          6           0       -2.958548   -0.012536   -0.045884
     22          9           0       -5.721231   -2.369921   -0.130392
     23          9           0       -5.744306    2.316719   -0.152261
     24          1           0        0.628075   -2.608296    0.098527
     25          6           0        0.398456   -5.362280    0.086817
     26          1           0       -2.317869   -5.782506    0.030833
     27          1           0        0.601877    2.621014    0.083278
     28          6           0        0.341059    5.372771    0.108014
     29          1           0       -4.126636    3.991341   -0.102923
     30          1           0       -2.375743    5.763900   -0.037457
     31          6           0        2.277388    0.010047    0.060642
     32          6           0        3.707803    0.013889    0.028194
     33          6           0        4.447523    1.218101   -0.023999
     34          6           0        4.455580   -1.186484    0.034584
     35          6           0        5.837091    1.229508   -0.071927
     36          6           0        5.845235   -1.190853   -0.012570
     37          6           0        6.585491    0.021156   -0.070201
     38          7           0        7.961809    0.024529   -0.122795
     39          1           0       -6.813007   -0.032125   -0.180343
     40          9           0        0.164122    6.329015   -0.821111
     41          9           0        1.561974    4.845788   -0.078463
     42          9           0        0.351159    5.992134    1.303574
     43          9           0        1.600000   -4.815854    0.333542
     44          9           0        0.487574   -6.010889   -1.089708
     45          9           0        0.175966   -6.297350    1.027787
     46          1           0        3.910527    2.170366   -0.029839
     47          1           0        6.346824    2.191499   -0.112978
     48          1           0        6.361574   -2.150201   -0.005956
     49          1           0        3.925014   -2.141478    0.075718
     50          6           0        8.685382    1.280513   -0.185956
     51          6           0        8.693844   -1.228146   -0.124189
     52          1           0        8.491668    1.917745    0.696229
     53          1           0        8.422404    1.868758   -1.084316
     54          1           0        9.762669    1.077961   -0.222194
     55          1           0        8.432484   -1.862719   -0.990876
     56          1           0        8.506737   -1.821220    0.789689
     57          1           0        9.769630   -1.020470   -0.173730
 ---------------------------------------------------------------------

 SCF Done:  E(RPW6B95) =  -2160.40956245     A.U. after   16 cycles

 The electronic state is 1-A.
 Alpha  occ. eigenvalues --  -24.92569 -24.92563 -24.92094 -24.92083 -24.91877
 Alpha  occ. eigenvalues --  -24.91867 -24.91558 -24.91556 -14.56013 -14.56012
 Alpha  occ. eigenvalues --  -14.49439 -10.57525 -10.57525 -10.42928 -10.42926
 Alpha  occ. eigenvalues --  -10.40097 -10.40094 -10.38971 -10.38963 -10.36464
 Alpha  occ. eigenvalues --  -10.36459 -10.36181 -10.36179 -10.35262 -10.34981
 Alpha  occ. eigenvalues --  -10.34977 -10.34106 -10.34105 -10.33850 -10.33844
 Alpha  occ. eigenvalues --  -10.33531 -10.32897 -10.31831 -10.31208 -10.31207
 Alpha  occ. eigenvalues --  -10.30509 -10.30508 -10.27563 -10.27029  -3.97421
 Alpha  occ. eigenvalues --   -2.19341  -2.18972  -2.15762  -1.34767  -1.34766
 Alpha  occ. eigenvalues --   -1.27137  -1.27089  -1.25764  -1.25763  -1.25240
 Alpha  occ. eigenvalues --   -1.25238  -1.01973  -1.01578  -0.96819  -0.91071
 Alpha  occ. eigenvalues --   -0.87483  -0.87409  -0.86456  -0.85076  -0.83823
 Alpha  occ. eigenvalues --   -0.79445  -0.79428  -0.78046  -0.76410  -0.74628
 Alpha  occ. eigenvalues --   -0.74089  -0.73355  -0.71981  -0.70210  -0.69881
 Alpha  occ. eigenvalues --   -0.69110  -0.68609  -0.67171  -0.65578  -0.65002
 Alpha  occ. eigenvalues --   -0.62975  -0.62775  -0.62755  -0.62710  -0.62390
 Alpha  occ. eigenvalues --   -0.61900  -0.61615  -0.60199  -0.59558  -0.57961
 Alpha  occ. eigenvalues --   -0.57454  -0.55644  -0.55217  -0.54594  -0.54065
 Alpha  occ. eigenvalues --   -0.52436  -0.51827  -0.51192  -0.51036  -0.50865
 Alpha  occ. eigenvalues --   -0.50563  -0.50530  -0.50100  -0.50074  -0.49786
 Alpha  occ. eigenvalues --   -0.49784  -0.49301  -0.48118  -0.48048  -0.47925
 Alpha  occ. eigenvalues --   -0.47835  -0.47409  -0.46950  -0.46376  -0.46371
 Alpha  occ. eigenvalues --   -0.46267  -0.46244  -0.45954  -0.45504  -0.44522
 Alpha  occ. eigenvalues --   -0.44516  -0.44119  -0.43418  -0.42831  -0.42599
 Alpha  occ. eigenvalues --   -0.42501  -0.41775  -0.41370  -0.40944  -0.40541
 Alpha  occ. eigenvalues --   -0.40422  -0.40315  -0.39306  -0.39202  -0.39091
 Alpha  occ. eigenvalues --   -0.37659  -0.36340  -0.35162  -0.35048  -0.34656
 Alpha  occ. eigenvalues --   -0.33579  -0.32550  -0.31718  -0.31283  -0.30172
 Alpha  occ. eigenvalues --   -0.27932  -0.27153  -0.27008  -0.26191  -0.26026
 Alpha  occ. eigenvalues --   -0.24652  -0.24396  -0.19363
 Alpha virt. eigenvalues --   -0.08909  -0.08525  -0.05174  -0.04857  -0.01855
 Alpha virt. eigenvalues --   -0.00148  -0.00002   0.00215   0.01542   0.02995
 Alpha virt. eigenvalues --    0.03897   0.04244   0.07148   0.07469   0.07815

 Mulliken charges:
               1
     1  Pt   0.806081
     2  C   -0.495164
     3  N   -0.390368
     4  N   -0.390259
     5  C    0.192410
     6  C    0.192373
     7  C    0.177178
     8  C    0.177297
     9  C   -0.004687
    10  C   -0.004551
    11  C    0.280329
    12  C   -0.034701
    13  C    0.116545
    14  C   -0.188728
    15  C    0.280286
    16  C   -0.148366
    17  C   -0.034598
    18  C    0.116535
    19  H    0.031503
    20  C   -0.188755
    21  C   -0.393655
    22  F   -0.196698
    23  F   -0.196718
    24  H    0.057835
    25  C    0.600752
    26  H    0.044781
    27  H    0.057758
    28  C    0.600751
    29  H    0.031510
    30  H    0.044689
    31  C   -0.093621
    32  C   -0.048294
    33  C   -0.007175
    34  C   -0.007342
    35  C   -0.086800
    36  C   -0.086736
    37  C    0.203742
    38  N   -0.373015
    39  H    0.026922
    40  F   -0.184020
    41  F   -0.175633
    42  F   -0.183541
    43  F   -0.175519
    44  F   -0.183655
    45  F   -0.184156
    46  H   -0.010364
    47  H   -0.013006
    48  H   -0.013016
    49  H   -0.010279
    50  C    0.124048
    51  C    0.124040
    52  H    0.034210
    53  H    0.033972
    54  H    0.039832
    55  H    0.034018
    56  H    0.034181
    57  H    0.039841
 Sum of Mulliken charges =  -0.00000

 Dipole moment (field-independent basis, Debye):
    X=             -3.9427    Y=             -0.0299    Z=             -0.4284  Tot=              3.9661
 Quadrupole moment (field-independent basis, Debye-Ang):
   XX=           -164.5178   YY=           -217.5870   ZZ=           -249.3621
   XY=              0.1590   XZ=             -1.2699   YZ=             -1.0506

  Exact polarizability:     874.955       0.483     672.280       2.653      -2.970     241.424
 Approx polarizability:     886.634       0.410     705.928       4.616      -3.440     278.458

 Normal termination of Gaussian 16 at Sun May  7 00:12:43 2023.
