 Gaussian 09, Revision D.01,
 Gaussian 09:  EM64L-G09RevD.01 24-Apr-2013

 ----------------------------------------------------------------------
 #p B3LYP/gen gfinput pseudo=read Integral(Grid=UltraFine,Acc2E=12) scf
 =maxcycle=200 Polar=(DCSHG) CPHF=RdFreq scrf=(iefpcm,read,solvent=n,n-
 DiMethylFormamide)
 ----------------------------------------------------------------------

 ------------------------------
 Primeira Hiperpolarizabilidade
 ------------------------------
 Symbolic Z-matrix:
 Charge =  0 Multiplicity = 1

                         Standard orientation:
 ---------------------------------------------------------------------
 Center     Atomic      Atomic             Coordinates (Angstroms)
 Number     Number       Type             X           Y           Z
 ---------------------------------------------------------------------
      1         78           0       -1.008098   -0.002554    0.023564
      2          6           0        1.040778    0.006667    0.073725
      3          7           0       -1.351872   -2.030588    0.021851
      4          7           0       -1.371945    2.022246    0.008714
      5          6           0       -0.428755    2.975399    0.046602
      6          6           0       -0.398749   -2.973631    0.063676
      7          6           0       -2.709059    2.370497   -0.042286
      8          6           0       -2.685437   -2.392870   -0.022148
      9          6           0       -3.612802   -1.258328   -0.063032
     10          6           0       -3.625038    1.226485   -0.074159
     11          6           0       -5.026887    1.184638   -0.123314
     12          6           0       -3.072336    3.724957   -0.058798
     13          6           0       -2.092344    4.709726   -0.020417
     14          6           0       -0.744979    4.330839    0.035451
     15          6           0       -5.014989   -1.230646   -0.112194
     16          6           0       -5.723602   -0.026574   -0.142658
     17          6           0       -3.034925   -3.751150   -0.020208
     18          6           0       -2.044755   -4.725434    0.024916
     19          1           0       -4.086756   -4.028898   -0.051962
     20          6           0       -0.700943   -4.332187    0.066180
     21          6           0       -2.958548   -0.012536   -0.045884
     22          9           0       -5.721231   -2.369921   -0.130392
     23          9           0       -5.744306    2.316719   -0.152261
     24          1           0        0.628075   -2.608296    0.098527
     25          6           0        0.398456   -5.362280    0.086817
     26          1           0       -2.317869   -5.782506    0.030833
     27          1           0        0.601877    2.621014    0.083278
     28          6           0        0.341059    5.372771    0.108014
     29          1           0       -4.126636    3.991341   -0.102923
     30          1           0       -2.375743    5.763900   -0.037457
     31          6           0        2.277388    0.010047    0.060642
     32          6           0        3.707803    0.013889    0.028194
     33          6           0        4.447523    1.218101   -0.023999
     34          6           0        4.455580   -1.186484    0.034584
     35          6           0        5.837091    1.229508   -0.071927
     36          6           0        5.845235   -1.190853   -0.012570
     37          6           0        6.585491    0.021156   -0.070201
     38          7           0        7.961809    0.024529   -0.122795
     39          1           0       -6.813007   -0.032125   -0.180343
     40          9           0        0.164122    6.329015   -0.821111
     41          9           0        1.561974    4.845788   -0.078463
     42          9           0        0.351159    5.992134    1.303574
     43          9           0        1.600000   -4.815854    0.333542
     44          9           0        0.487574   -6.010889   -1.089708
     45          9           0        0.175966   -6.297350    1.027787
     46          1           0        3.910527    2.170366   -0.029839
     47          1           0        6.346824    2.191499   -0.112978
     48          1           0        6.361574   -2.150201   -0.005956
     49          1           0        3.925014   -2.141478    0.075718
     50          6           0        8.685382    1.280513   -0.185956
     51          6           0        8.693844   -1.228146   -0.124189
     52          1           0        8.491668    1.917745    0.696229
     53          1           0        8.422404    1.868758   -1.084316
     54          1           0        9.762669    1.077961   -0.222194
     55          1           0        8.432484   -1.862719   -0.990876
     56          1           0        8.506737   -1.821220    0.789689
     57          1           0        9.769630   -1.020470   -0.173730
 ---------------------------------------------------------------------

 SCF Done:  E(RB3LYP) =  -2160.02140295     A.U. after   15 cycles

 The electronic state is 1-A.
 Alpha  occ. eigenvalues --  -24.72868 -24.72865 -24.72550 -24.72543 -24.72406
 Alpha  occ. eigenvalues --  -24.72400 -24.71776 -24.71775 -14.39872 -14.39870
 Alpha  occ. eigenvalues --  -14.34050 -10.44455 -10.44454 -10.29572 -10.29572
 Alpha  occ. eigenvalues --  -10.26595 -10.26593 -10.25288 -10.25279 -10.23027
 Alpha  occ. eigenvalues --  -10.23025 -10.22915 -10.22911 -10.22108 -10.21511
 Alpha  occ. eigenvalues --  -10.21507 -10.20805 -10.20803 -10.20366 -10.20366
 Alpha  occ. eigenvalues --  -10.20181 -10.19564 -10.18806 -10.17945 -10.17943
 Alpha  occ. eigenvalues --  -10.17313 -10.17312 -10.14367 -10.13804  -3.93452
 Alpha  occ. eigenvalues --   -2.16102  -2.15759  -2.12694  -1.33124  -1.33124
 Alpha  occ. eigenvalues --   -1.25650  -1.25607  -1.24434  -1.24433  -1.24025
 Alpha  occ. eigenvalues --   -1.24023  -0.99841  -0.99455  -0.95274  -0.89049
 Alpha  occ. eigenvalues --   -0.85638  -0.85573  -0.84846  -0.83241  -0.81992
 Alpha  occ. eigenvalues --   -0.77759  -0.77733  -0.76638  -0.75019  -0.73144
 Alpha  occ. eigenvalues --   -0.72669  -0.72024  -0.70709  -0.68430  -0.68291
 Alpha  occ. eigenvalues --   -0.67423  -0.66911  -0.65925  -0.63894  -0.63266
 Alpha  occ. eigenvalues --   -0.61173  -0.61077  -0.61073  -0.60970  -0.60431
 Alpha  occ. eigenvalues --   -0.60321  -0.59951  -0.58582  -0.58130  -0.55979
 Alpha  occ. eigenvalues --   -0.55716  -0.53834  -0.53689  -0.52685  -0.52157
 Alpha  occ. eigenvalues --   -0.50503  -0.50457  -0.49364  -0.49279  -0.49156
 Alpha  occ. eigenvalues --   -0.48840  -0.48809  -0.48590  -0.48388  -0.48087
 Alpha  occ. eigenvalues --   -0.48060  -0.47737  -0.46553  -0.46448  -0.46012
 Alpha  occ. eigenvalues --   -0.45939  -0.45697  -0.45257  -0.44772  -0.44647
 Alpha  occ. eigenvalues --   -0.44644  -0.44548  -0.44524  -0.43869  -0.42898
 Alpha  occ. eigenvalues --   -0.42892  -0.42704  -0.42102  -0.41248  -0.41146
 Alpha  occ. eigenvalues --   -0.40765  -0.40572  -0.40042  -0.39450  -0.39030
 Alpha  occ. eigenvalues --   -0.38719  -0.38637  -0.37958  -0.37855  -0.37766
 Alpha  occ. eigenvalues --   -0.35971  -0.34648  -0.33960  -0.33436  -0.33061
 Alpha  occ. eigenvalues --   -0.32084  -0.31107  -0.29897  -0.29726  -0.28907
 Alpha  occ. eigenvalues --   -0.26384  -0.25877  -0.25869  -0.24631  -0.24578
 Alpha  occ. eigenvalues --   -0.23267  -0.23117  -0.18439
 Alpha virt. eigenvalues --   -0.09539  -0.09103  -0.06068  -0.05649  -0.02726
 Alpha virt. eigenvalues --   -0.01374  -0.01346  -0.00773   0.00597   0.01854
 Alpha virt. eigenvalues --    0.02507   0.02653   0.02927   0.04347   0.04858

 Mulliken charges:
               1
     1  Pt   1.000986
     2  C   -0.630994
     3  N   -0.310412
     4  N   -0.310755
     5  C   -0.016075
     6  C   -0.016205
     7  C    0.184472
     8  C    0.184337
     9  C   -0.082212
    10  C   -0.082160
    11  C    0.210152
    12  C   -0.093183
    13  C   -0.028487
    14  C    0.112107
    15  C    0.210110
    16  C   -0.151764
    17  C   -0.092983
    18  C   -0.028817
    19  H    0.083053
    20  C    0.111991
    21  C   -0.213740
    22  F   -0.202637
    23  F   -0.202657
    24  H    0.145011
    25  C    0.243677
    26  H    0.095317
    27  H    0.144489
    28  C    0.243659
    29  H    0.083160
    30  H    0.095360
    31  C   -0.077207
    32  C   -0.029453
    33  C   -0.095681
    34  C   -0.096113
    35  C   -0.145343
    36  C   -0.145227
    37  C    0.134771
    38  N    0.013943
    39  H    0.110379
    40  F   -0.122169
    41  F   -0.121749
    42  F   -0.120501
    43  F   -0.121919
    44  F   -0.120594
    45  F   -0.122029
    46  H    0.071547
    47  H    0.064084
    48  H    0.064126
    49  H    0.071472
    50  C   -0.244529
    51  C   -0.244529
    52  H    0.101363
    53  H    0.101397
    54  H    0.093194
    55  H    0.101187
    56  H    0.101573
    57  H    0.093209
 Sum of Mulliken charges =   0.00000

 Dipole moment (field-independent basis, Debye):
    X=             -3.8791    Y=             -0.0290    Z=             -0.4380  Tot=              3.9039
 Quadrupole moment (field-independent basis, Debye-Ang):
   XX=           -168.1364   YY=           -222.9524   ZZ=           -250.9363
   XY=              0.1646   XZ=             -1.3677   YZ=             -0.9552

  Exact polarizability: 975.079   0.461 748.839   3.005  -2.736 303.104
 Approx polarizability:1044.998   0.512 828.184   5.250  -3.416 363.296

 Normal termination of Gaussian 09 at Sat May 20 14:47:27 2023.
