 Gaussian 09, Revision D.01,
 Gaussian 09:  EM64L-G09RevD.01 24-Apr-2013

 ----------------------------------------------------------------------
 #p B3LYP/gen gfinput pseudo=read Integral(Grid=UltraFine,Acc2E=12) scf
 =maxcycle=200 Polar=(DCSHG) CPHF=RdFreq scrf=(iefpcm,read,solvent=n,n-
 DiMethylFormamide)
 ----------------------------------------------------------------------

 ------------------------------
 Primeira Hiperpolarizabilidade
 ------------------------------
 Symbolic Z-matrix:
 Charge =  0 Multiplicity = 1

                         Standard orientation:
 ---------------------------------------------------------------------
 Center     Atomic      Atomic             Coordinates (Angstroms)
 Number     Number       Type             X           Y           Z
 ---------------------------------------------------------------------
      1         78           0       -1.008098   -0.002554    0.023564
      2          6           0        1.040778    0.006667    0.073725
      3          7           0       -1.351872   -2.030588    0.021851
      4          7           0       -1.371945    2.022246    0.008714
      5          6           0       -0.428755    2.975399    0.046602
      6          6           0       -0.398749   -2.973631    0.063676
      7          6           0       -2.709059    2.370497   -0.042286
      8          6           0       -2.685437   -2.392870   -0.022148
      9          6           0       -3.612802   -1.258328   -0.063032
     10          6           0       -3.625038    1.226485   -0.074159
     11          6           0       -5.026887    1.184638   -0.123314
     12          6           0       -3.072336    3.724957   -0.058798
     13          6           0       -2.092344    4.709726   -0.020417
     14          6           0       -0.744979    4.330839    0.035451
     15          6           0       -5.014989   -1.230646   -0.112194
     16          6           0       -5.723602   -0.026574   -0.142658
     17          6           0       -3.034925   -3.751150   -0.020208
     18          6           0       -2.044755   -4.725434    0.024916
     19          1           0       -4.086756   -4.028898   -0.051962
     20          6           0       -0.700943   -4.332187    0.066180
     21          6           0       -2.958548   -0.012536   -0.045884
     22          9           0       -5.721231   -2.369921   -0.130392
     23          9           0       -5.744306    2.316719   -0.152261
     24          1           0        0.628075   -2.608296    0.098527
     25          6           0        0.398456   -5.362280    0.086817
     26          1           0       -2.317869   -5.782506    0.030833
     27          1           0        0.601877    2.621014    0.083278
     28          6           0        0.341059    5.372771    0.108014
     29          1           0       -4.126636    3.991341   -0.102923
     30          1           0       -2.375743    5.763900   -0.037457
     31          6           0        2.277388    0.010047    0.060642
     32          6           0        3.707803    0.013889    0.028194
     33          6           0        4.447523    1.218101   -0.023999
     34          6           0        4.455580   -1.186484    0.034584
     35          6           0        5.837091    1.229508   -0.071927
     36          6           0        5.845235   -1.190853   -0.012570
     37          6           0        6.585491    0.021156   -0.070201
     38          7           0        7.961809    0.024529   -0.122795
     39          1           0       -6.813007   -0.032125   -0.180343
     40          9           0        0.164122    6.329015   -0.821111
     41          9           0        1.561974    4.845788   -0.078463
     42          9           0        0.351159    5.992134    1.303574
     43          9           0        1.600000   -4.815854    0.333542
     44          9           0        0.487574   -6.010889   -1.089708
     45          9           0        0.175966   -6.297350    1.027787
     46          1           0        3.910527    2.170366   -0.029839
     47          1           0        6.346824    2.191499   -0.112978
     48          1           0        6.361574   -2.150201   -0.005956
     49          1           0        3.925014   -2.141478    0.075718
     50          6           0        8.685382    1.280513   -0.185956
     51          6           0        8.693844   -1.228146   -0.124189
     52          1           0        8.491668    1.917745    0.696229
     53          1           0        8.422404    1.868758   -1.084316
     54          1           0        9.762669    1.077961   -0.222194
     55          1           0        8.432484   -1.862719   -0.990876
     56          1           0        8.506737   -1.821220    0.789689
     57          1           0        9.769630   -1.020470   -0.173730
 ---------------------------------------------------------------------

 SCF Done:  E(RB3LYP) =  -2159.47856403     A.U. after   17 cycles

 The electronic state is 1-A.
 Alpha  occ. eigenvalues --  -24.73616 -24.73612 -24.73176 -24.73164 -24.72974
 Alpha  occ. eigenvalues --  -24.72973 -24.72947 -24.72938 -14.40781 -14.40780
 Alpha  occ. eigenvalues --  -14.34673 -10.44280 -10.44280 -10.30187 -10.30187
 Alpha  occ. eigenvalues --  -10.27237 -10.27234 -10.26104 -10.26094 -10.23750
 Alpha  occ. eigenvalues --  -10.23745 -10.23579 -10.23577 -10.22723 -10.22396
 Alpha  occ. eigenvalues --  -10.22392 -10.21478 -10.21476 -10.21418 -10.21417
 Alpha  occ. eigenvalues --  -10.21027 -10.20129 -10.19459 -10.18762 -10.18760
 Alpha  occ. eigenvalues --  -10.18128 -10.18128 -10.15294 -10.14673  -3.93373
 Alpha  occ. eigenvalues --   -2.16093  -2.15729  -2.12551  -1.32477  -1.32477
 Alpha  occ. eigenvalues --   -1.25425  -1.25388  -1.23781  -1.23779  -1.23272
 Alpha  occ. eigenvalues --   -1.23270  -0.99854  -0.99462  -0.95164  -0.88965
 Alpha  occ. eigenvalues --   -0.85454  -0.85402  -0.84639  -0.83169  -0.81883
 Alpha  occ. eigenvalues --   -0.77540  -0.77537  -0.76463  -0.74823  -0.72754
 Alpha  occ. eigenvalues --   -0.72223  -0.71886  -0.70521  -0.68246  -0.67833
 Alpha  occ. eigenvalues --   -0.67211  -0.66477  -0.65717  -0.63613  -0.62956
 Alpha  occ. eigenvalues --   -0.60359  -0.60217  -0.60076  -0.60070  -0.60062
 Alpha  occ. eigenvalues --   -0.59857  -0.59357  -0.58293  -0.57772  -0.55603
 Alpha  occ. eigenvalues --   -0.55390  -0.53414  -0.53334  -0.52347  -0.51797
 Alpha  occ. eigenvalues --   -0.50236  -0.49790  -0.48924  -0.48535  -0.48396
 Alpha  occ. eigenvalues --   -0.48258  -0.47830  -0.47596  -0.47590  -0.47534
 Alpha  occ. eigenvalues --   -0.47249  -0.46994  -0.46182  -0.45982  -0.45448
 Alpha  occ. eigenvalues --   -0.45344  -0.45201  -0.44848  -0.44450  -0.43624
 Alpha  occ. eigenvalues --   -0.43525  -0.43504  -0.43377  -0.43321  -0.42378
 Alpha  occ. eigenvalues --   -0.41756  -0.41517  -0.41511  -0.40647  -0.40549
 Alpha  occ. eigenvalues --   -0.40270  -0.40256  -0.39666  -0.38931  -0.38679
 Alpha  occ. eigenvalues --   -0.38189  -0.38151  -0.37680  -0.37492  -0.37327
 Alpha  occ. eigenvalues --   -0.35747  -0.34280  -0.33608  -0.33046  -0.32679
 Alpha  occ. eigenvalues --   -0.31691  -0.30682  -0.29729  -0.29427  -0.28682
 Alpha  occ. eigenvalues --   -0.26127  -0.25434  -0.25389  -0.24533  -0.24252
 Alpha  occ. eigenvalues --   -0.22913  -0.22758  -0.17965
 Alpha virt. eigenvalues --   -0.09115  -0.08633  -0.05537  -0.05156  -0.02236
 Alpha virt. eigenvalues --   -0.01083  -0.00581  -0.00193   0.01137   0.02718
 Alpha virt. eigenvalues --    0.03375   0.03801   0.05855   0.06781   0.07133

 Mulliken charges:
               1
     1  Pt   0.891985
     2  C   -0.751753
     3  N   -0.333701
     4  N   -0.333708
     5  C    0.158965
     6  C    0.159347
     7  C    0.222688
     8  C    0.222660
     9  C    0.095983
    10  C    0.096251
    11  C    0.186135
    12  C   -0.033184
    13  C    0.134705
    14  C   -0.159094
    15  C    0.186080
    16  C   -0.046169
    17  C   -0.033228
    18  C    0.134614
    19  H   -0.022094
    20  C   -0.159284
    21  C   -0.546821
    22  F   -0.161575
    23  F   -0.161597
    24  H    0.005551
    25  C    0.599714
    26  H   -0.014755
    27  H    0.005659
    28  C    0.599561
    29  H   -0.022114
    30  H   -0.014841
    31  C    0.191304
    32  C   -0.069460
    33  C    0.021401
    34  C    0.021233
    35  C   -0.046084
    36  C   -0.046047
    37  C    0.196772
    38  N   -0.209756
    39  H   -0.015209
    40  F   -0.169416
    41  F   -0.162271
    42  F   -0.170821
    43  F   -0.162202
    44  F   -0.170829
    45  F   -0.169626
    46  H   -0.072350
    47  H   -0.059652
    48  H   -0.059658
    49  H   -0.072376
    50  C    0.123004
    51  C    0.123026
    52  H    0.010625
    53  H    0.010278
    54  H    0.015614
    55  H    0.010369
    56  H    0.010536
    57  H    0.015619
 Sum of Mulliken charges =   0.00000

 Dipole moment (field-independent basis, Debye):
    X=             -3.6903    Y=             -0.0280    Z=             -0.4182  Tot=              3.7140
 Quadrupole moment (field-independent basis, Debye-Ang):
   XX=           -163.4505   YY=           -216.1773   ZZ=           -248.2021
   XY=              0.1574   XZ=             -1.2161   YZ=             -0.9953

  Exact polarizability: 942.323   0.466 709.074   2.868  -3.087 235.672
 Approx polarizability:1023.472   0.525 798.286   5.332  -3.855 298.077

 Normal termination of Gaussian 09 at Fri May 19 23:34:30 2023.
