 Gaussian 09, Revision D.01,
 Gaussian 09:  EM64L-G09RevD.01 24-Apr-2013

 ----------------------------------------------------------------------
 #p SOGGA11X/gen gfinput pseudo=read Integral(Grid=UltraFine,Acc2E=12)
 scf=maxcycle=200 Polar=(DCSHG) CPHF=RdFreq scrf=(iefpcm,read,solvent=n
 ,n-DiMethylFormamide)
 ----------------------------------------------------------------------

 ------------------------------
 Primeira Hiperpolarizabilidade
 ------------------------------
 Symbolic Z-matrix:
 Charge =  0 Multiplicity = 1

                         Standard orientation:
 ---------------------------------------------------------------------
 Center     Atomic      Atomic             Coordinates (Angstroms)
 Number     Number       Type             X           Y           Z
 ---------------------------------------------------------------------
      1         78           0       -1.008098   -0.002554    0.023564
      2          6           0        1.040778    0.006667    0.073725
      3          7           0       -1.351872   -2.030588    0.021851
      4          7           0       -1.371945    2.022246    0.008714
      5          6           0       -0.428755    2.975399    0.046602
      6          6           0       -0.398749   -2.973631    0.063676
      7          6           0       -2.709059    2.370497   -0.042286
      8          6           0       -2.685437   -2.392870   -0.022148
      9          6           0       -3.612802   -1.258328   -0.063032
     10          6           0       -3.625038    1.226485   -0.074159
     11          6           0       -5.026887    1.184638   -0.123314
     12          6           0       -3.072336    3.724957   -0.058798
     13          6           0       -2.092344    4.709726   -0.020417
     14          6           0       -0.744979    4.330839    0.035451
     15          6           0       -5.014989   -1.230646   -0.112194
     16          6           0       -5.723602   -0.026574   -0.142658
     17          6           0       -3.034925   -3.751150   -0.020208
     18          6           0       -2.044755   -4.725434    0.024916
     19          1           0       -4.086756   -4.028898   -0.051962
     20          6           0       -0.700943   -4.332187    0.066180
     21          6           0       -2.958548   -0.012536   -0.045884
     22          9           0       -5.721231   -2.369921   -0.130392
     23          9           0       -5.744306    2.316719   -0.152261
     24          1           0        0.628075   -2.608296    0.098527
     25          6           0        0.398456   -5.362280    0.086817
     26          1           0       -2.317869   -5.782506    0.030833
     27          1           0        0.601877    2.621014    0.083278
     28          6           0        0.341059    5.372771    0.108014
     29          1           0       -4.126636    3.991341   -0.102923
     30          1           0       -2.375743    5.763900   -0.037457
     31          6           0        2.277388    0.010047    0.060642
     32          6           0        3.707803    0.013889    0.028194
     33          6           0        4.447523    1.218101   -0.023999
     34          6           0        4.455580   -1.186484    0.034584
     35          6           0        5.837091    1.229508   -0.071927
     36          6           0        5.845235   -1.190853   -0.012570
     37          6           0        6.585491    0.021156   -0.070201
     38          7           0        7.961809    0.024529   -0.122795
     39          1           0       -6.813007   -0.032125   -0.180343
     40          9           0        0.164122    6.329015   -0.821111
     41          9           0        1.561974    4.845788   -0.078463
     42          9           0        0.351159    5.992134    1.303574
     43          9           0        1.600000   -4.815854    0.333542
     44          9           0        0.487574   -6.010889   -1.089708
     45          9           0        0.175966   -6.297350    1.027787
     46          1           0        3.910527    2.170366   -0.029839
     47          1           0        6.346824    2.191499   -0.112978
     48          1           0        6.361574   -2.150201   -0.005956
     49          1           0        3.925014   -2.141478    0.075718
     50          6           0        8.685382    1.280513   -0.185956
     51          6           0        8.693844   -1.228146   -0.124189
     52          1           0        8.491668    1.917745    0.696229
     53          1           0        8.422404    1.868758   -1.084316
     54          1           0        9.762669    1.077961   -0.222194
     55          1           0        8.432484   -1.862719   -0.990876
     56          1           0        8.506737   -1.821220    0.789689
     57          1           0        9.769630   -1.020470   -0.173730
 ---------------------------------------------------------------------

 SCF Done:  E(RSOGGA11X) =  -2157.23951959     A.U. after   17 cycles

 The electronic state is 1-A.
 Alpha  occ. eigenvalues --  -25.16240 -25.16236 -25.15759 -25.15746 -25.15536
 Alpha  occ. eigenvalues --  -25.15527 -25.15281 -25.15279 -14.74199 -14.74197
 Alpha  occ. eigenvalues --  -14.67539 -10.72762 -10.72761 -10.58376 -10.58375
 Alpha  occ. eigenvalues --  -10.55418 -10.55415 -10.54246 -10.54237 -10.51801
 Alpha  occ. eigenvalues --  -10.51796 -10.51176 -10.51174 -10.50482 -10.50071
 Alpha  occ. eigenvalues --  -10.50067 -10.49147 -10.49145 -10.48736 -10.48732
 Alpha  occ. eigenvalues --  -10.48620 -10.47962 -10.46950 -10.46467 -10.46463
 Alpha  occ. eigenvalues --  -10.45618 -10.45617 -10.42769 -10.42170  -4.08255
 Alpha  occ. eigenvalues --   -2.27122  -2.26862  -2.23665  -1.44001  -1.44000
 Alpha  occ. eigenvalues --   -1.36268  -1.36216  -1.34802  -1.34800  -1.34267
 Alpha  occ. eigenvalues --   -1.34265  -1.09574  -1.09155  -1.04289  -0.98281
 Alpha  occ. eigenvalues --   -0.94409  -0.94329  -0.93575  -0.91888  -0.90529
 Alpha  occ. eigenvalues --   -0.85936  -0.85934  -0.84648  -0.82840  -0.80720
 Alpha  occ. eigenvalues --   -0.80176  -0.79257  -0.78201  -0.75795  -0.75536
 Alpha  occ. eigenvalues --   -0.74648  -0.74076  -0.72856  -0.70943  -0.70285
 Alpha  occ. eigenvalues --   -0.67918  -0.67714  -0.67699  -0.67662  -0.67267
 Alpha  occ. eigenvalues --   -0.66886  -0.66783  -0.65037  -0.64575  -0.62647
 Alpha  occ. eigenvalues --   -0.62199  -0.60241  -0.59642  -0.58941  -0.58509
 Alpha  occ. eigenvalues --   -0.57102  -0.56147  -0.55961  -0.55671  -0.55627
 Alpha  occ. eigenvalues --   -0.55391  -0.55366  -0.54574  -0.54145  -0.54085
 Alpha  occ. eigenvalues --   -0.53965  -0.53516  -0.52355  -0.51924  -0.51906
 Alpha  occ. eigenvalues --   -0.51856  -0.51763  -0.51214  -0.50839  -0.50601
 Alpha  occ. eigenvalues --   -0.50591  -0.50576  -0.49991  -0.49357  -0.49224
 Alpha  occ. eigenvalues --   -0.49217  -0.47855  -0.47266  -0.46937  -0.46485
 Alpha  occ. eigenvalues --   -0.46409  -0.45167  -0.44988  -0.44563  -0.44076
 Alpha  occ. eigenvalues --   -0.44000  -0.43801  -0.42696  -0.42636  -0.42523
 Alpha  occ. eigenvalues --   -0.40991  -0.39113  -0.38474  -0.37695  -0.37280
 Alpha  occ. eigenvalues --   -0.36530  -0.35212  -0.34687  -0.33857  -0.33261
 Alpha  occ. eigenvalues --   -0.30314  -0.29585  -0.29417  -0.28644  -0.28231
 Alpha  occ. eigenvalues --   -0.27278  -0.26727  -0.21375
 Alpha virt. eigenvalues --   -0.07739  -0.07333  -0.03626  -0.03238  -0.00520
 Alpha virt. eigenvalues --    0.01377   0.01710   0.01927   0.03531   0.03875
 Alpha virt. eigenvalues --    0.04749   0.05085   0.08910   0.09179   0.09911

 Mulliken charges:
               1
     1  Pt   1.010100
     2  C   -0.507348
     3  N   -0.515163
     4  N   -0.515085
     5  C    0.233747
     6  C    0.233808
     7  C    0.231630
     8  C    0.231715
     9  C   -0.104706
    10  C   -0.104558
    11  C    0.349279
    12  C   -0.064871
    13  C    0.109169
    14  C   -0.289879
    15  C    0.349255
    16  C   -0.188385
    17  C   -0.064759
    18  C    0.109160
    19  H    0.069899
    20  C   -0.289997
    21  C   -0.369981
    22  F   -0.227353
    23  F   -0.227373
    24  H    0.089235
    25  C    0.730837
    26  H    0.084155
    27  H    0.089245
    28  C    0.730762
    29  H    0.069876
    30  H    0.084049
    31  C   -0.150220
    32  C   -0.091131
    33  C   -0.013154
    34  C   -0.013246
    35  C   -0.129980
    36  C   -0.129951
    37  C    0.237794
    38  N   -0.486755
    39  H    0.068379
    40  F   -0.214087
    41  F   -0.206688
    42  F   -0.213703
    43  F   -0.206615
    44  F   -0.213829
    45  F   -0.214225
    46  H    0.033598
    47  H    0.025503
    48  H    0.025498
    49  H    0.033562
    50  C    0.097666
    51  C    0.097688
    52  H    0.051464
    53  H    0.051236
    54  H    0.061014
    55  H    0.051261
    56  H    0.051437
    57  H    0.061021
 Sum of Mulliken charges =   0.00000

 Dipole moment (field-independent basis, Debye):
    X=             -4.1494    Y=             -0.0299    Z=             -0.4293  Tot=              4.1716
 Quadrupole moment (field-independent basis, Debye-Ang):
   XX=           -168.3770   YY=           -219.6187   ZZ=           -253.2288
   XY=              0.1532   XZ=             -1.2885   YZ=             -1.0852

  Exact polarizability: 809.753   0.306 641.760   2.658  -2.886 239.838
 Approx polarizability: 739.357   0.288 607.443   3.803  -2.905 263.158

 Normal termination of Gaussian 09 at Sat Feb  4 09:12:55 2023.
