 Gaussian 09, Revision D.01,
 Gaussian 09:  EM64L-G09RevD.01 24-Apr-2013

 ----------------------------------------------------------------------
 #p SOGGA11/gen gfinput pseudo=read Integral(Grid=UltraFine,Acc2E=12) s
 cf=maxcycle=200 Polar=(DCSHG) CPHF=RdFreq scrf=(iefpcm,read,solvent=n,
 n-DiMethylFormamide)
 ----------------------------------------------------------------------

 ------------------------------
 Primeira Hiperpolarizabilidade
 ------------------------------
 Symbolic Z-matrix:
 Charge =  0 Multiplicity = 1

                         Standard orientation:
 ---------------------------------------------------------------------
 Center     Atomic      Atomic             Coordinates (Angstroms)
 Number     Number       Type             X           Y           Z
 ---------------------------------------------------------------------
      1         78           0       -1.008098   -0.002554    0.023564
      2          6           0        1.040778    0.006667    0.073725
      3          7           0       -1.351872   -2.030588    0.021851
      4          7           0       -1.371945    2.022246    0.008714
      5          6           0       -0.428755    2.975399    0.046602
      6          6           0       -0.398749   -2.973631    0.063676
      7          6           0       -2.709059    2.370497   -0.042286
      8          6           0       -2.685437   -2.392870   -0.022148
      9          6           0       -3.612802   -1.258328   -0.063032
     10          6           0       -3.625038    1.226485   -0.074159
     11          6           0       -5.026887    1.184638   -0.123314
     12          6           0       -3.072336    3.724957   -0.058798
     13          6           0       -2.092344    4.709726   -0.020417
     14          6           0       -0.744979    4.330839    0.035451
     15          6           0       -5.014989   -1.230646   -0.112194
     16          6           0       -5.723602   -0.026574   -0.142658
     17          6           0       -3.034925   -3.751150   -0.020208
     18          6           0       -2.044755   -4.725434    0.024916
     19          1           0       -4.086756   -4.028898   -0.051962
     20          6           0       -0.700943   -4.332187    0.066180
     21          6           0       -2.958548   -0.012536   -0.045884
     22          9           0       -5.721231   -2.369921   -0.130392
     23          9           0       -5.744306    2.316719   -0.152261
     24          1           0        0.628075   -2.608296    0.098527
     25          6           0        0.398456   -5.362280    0.086817
     26          1           0       -2.317869   -5.782506    0.030833
     27          1           0        0.601877    2.621014    0.083278
     28          6           0        0.341059    5.372771    0.108014
     29          1           0       -4.126636    3.991341   -0.102923
     30          1           0       -2.375743    5.763900   -0.037457
     31          6           0        2.277388    0.010047    0.060642
     32          6           0        3.707803    0.013889    0.028194
     33          6           0        4.447523    1.218101   -0.023999
     34          6           0        4.455580   -1.186484    0.034584
     35          6           0        5.837091    1.229508   -0.071927
     36          6           0        5.845235   -1.190853   -0.012570
     37          6           0        6.585491    0.021156   -0.070201
     38          7           0        7.961809    0.024529   -0.122795
     39          1           0       -6.813007   -0.032125   -0.180343
     40          9           0        0.164122    6.329015   -0.821111
     41          9           0        1.561974    4.845788   -0.078463
     42          9           0        0.351159    5.992134    1.303574
     43          9           0        1.600000   -4.815854    0.333542
     44          9           0        0.487574   -6.010889   -1.089708
     45          9           0        0.175966   -6.297350    1.027787
     46          1           0        3.910527    2.170366   -0.029839
     47          1           0        6.346824    2.191499   -0.112978
     48          1           0        6.361574   -2.150201   -0.005956
     49          1           0        3.925014   -2.141478    0.075718
     50          6           0        8.685382    1.280513   -0.185956
     51          6           0        8.693844   -1.228146   -0.124189
     52          1           0        8.491668    1.917745    0.696229
     53          1           0        8.422404    1.868758   -1.084316
     54          1           0        9.762669    1.077961   -0.222194
     55          1           0        8.432484   -1.862719   -0.990876
     56          1           0        8.506737   -1.821220    0.789689
     57          1           0        9.769630   -1.020470   -0.173730
 ---------------------------------------------------------------------

 SCF Done:  E(RSOGGA11) =  -2158.13672059     A.U. after   23 cycles

 The electronic state is 1-A.
 Alpha  occ. eigenvalues --  -24.29910 -24.29904 -24.29528 -24.29523 -24.29482
 Alpha  occ. eigenvalues --  -24.29480 -24.29347 -24.29336 -14.08807 -14.08806
 Alpha  occ. eigenvalues --  -14.03024 -10.15213 -10.15211 -10.01607 -10.01604
 Alpha  occ. eigenvalues --   -9.98972  -9.98969  -9.97776  -9.97769  -9.95349
 Alpha  occ. eigenvalues --   -9.95345  -9.95308  -9.95306  -9.94741  -9.94272
 Alpha  occ. eigenvalues --   -9.94268  -9.93768  -9.93759  -9.93427  -9.93425
 Alpha  occ. eigenvalues --   -9.92766  -9.92735  -9.91603  -9.90700  -9.90698
 Alpha  occ. eigenvalues --   -9.90074  -9.90072  -9.87046  -9.86907  -3.77977
 Alpha  occ. eigenvalues --   -2.04777  -2.04311  -2.01019  -1.18847  -1.18845
 Alpha  occ. eigenvalues --   -1.11651  -1.11601  -1.09818  -1.09817  -1.09330
 Alpha  occ. eigenvalues --   -1.09325  -0.89884  -0.89508  -0.85514  -0.79696
 Alpha  occ. eigenvalues --   -0.76232  -0.76159  -0.75611  -0.74108  -0.72972
 Alpha  occ. eigenvalues --   -0.68867  -0.68747  -0.67899  -0.66430  -0.64288
 Alpha  occ. eigenvalues --   -0.64003  -0.63677  -0.62293  -0.60744  -0.59957
 Alpha  occ. eigenvalues --   -0.59537  -0.58899  -0.58122  -0.56275  -0.55857
 Alpha  occ. eigenvalues --   -0.53652  -0.53491  -0.53096  -0.53089  -0.53081
 Alpha  occ. eigenvalues --   -0.53078  -0.52728  -0.51734  -0.51297  -0.49542
 Alpha  occ. eigenvalues --   -0.48942  -0.47776  -0.47286  -0.46805  -0.45966
 Alpha  occ. eigenvalues --   -0.44721  -0.43399  -0.43313  -0.43218  -0.42391
 Alpha  occ. eigenvalues --   -0.42103  -0.41807  -0.41643  -0.41065  -0.40596
 Alpha  occ. eigenvalues --   -0.40501  -0.40408  -0.40140  -0.40128  -0.40037
 Alpha  occ. eigenvalues --   -0.40019  -0.39322  -0.39245  -0.38851  -0.38452
 Alpha  occ. eigenvalues --   -0.37812  -0.36730  -0.36681  -0.36635  -0.36391
 Alpha  occ. eigenvalues --   -0.36323  -0.35565  -0.35445  -0.35243  -0.34689
 Alpha  occ. eigenvalues --   -0.34448  -0.34439  -0.34157  -0.33924  -0.33467
 Alpha  occ. eigenvalues --   -0.33308  -0.33116  -0.32946  -0.32724  -0.32447
 Alpha  occ. eigenvalues --   -0.31244  -0.30462  -0.29566  -0.29172  -0.29167
 Alpha  occ. eigenvalues --   -0.27710  -0.27167  -0.25928  -0.25290  -0.24732
 Alpha  occ. eigenvalues --   -0.22861  -0.22418  -0.22332  -0.20973  -0.20310
 Alpha  occ. eigenvalues --   -0.19656  -0.19168  -0.15514
 Alpha virt. eigenvalues --   -0.11104  -0.10711  -0.08311  -0.08001  -0.04519
 Alpha virt. eigenvalues --   -0.03709  -0.03258  -0.02783  -0.02070   0.01887
 Alpha virt. eigenvalues --    0.02744   0.03567   0.03777   0.04063   0.04950

 Mulliken charges:
               1
     1  Pt   0.845968
     2  C   -0.442976
     3  N   -0.462328
     4  N   -0.462378
     5  C    0.229967
     6  C    0.229002
     7  C    0.209202
     8  C    0.209248
     9  C    0.035411
    10  C    0.035482
    11  C    0.265014
    12  C   -0.054382
    13  C    0.099464
    14  C   -0.173479
    15  C    0.264901
    16  C   -0.203750
    17  C   -0.054330
    18  C    0.098996
    19  H    0.026035
    20  C   -0.172721
    21  C   -0.422014
    22  F   -0.165897
    23  F   -0.165925
    24  H    0.014917
    25  C    0.553983
    26  H    0.038829
    27  H    0.014355
    28  C    0.554700
    29  H    0.026089
    30  H    0.038560
    31  C   -0.099803
    32  C   -0.083338
    33  C    0.031315
    34  C    0.033009
    35  C   -0.029542
    36  C   -0.029484
    37  C    0.205527
    38  N   -0.360843
    39  H    0.031465
    40  F   -0.160126
    41  F   -0.149656
    42  F   -0.159403
    43  F   -0.149228
    44  F   -0.159288
    45  F   -0.159934
    46  H   -0.068782
    47  H   -0.045113
    48  H   -0.045168
    49  H   -0.070429
    50  C    0.098755
    51  C    0.098742
    52  H    0.041941
    53  H    0.041525
    54  H    0.047204
    55  H    0.041645
    56  H    0.041860
    57  H    0.047206
 Sum of Mulliken charges =   0.00000

 Dipole moment (field-independent basis, Debye):
    X=             -2.5723    Y=             -0.0224    Z=             -0.4250  Tot=              2.6072
 Quadrupole moment (field-independent basis, Debye-Ang):
   XX=           -153.6339   YY=           -214.4654   ZZ=           -244.6322
   XY=              0.1950   XZ=             -1.2989   YZ=             -0.9093

  Exact polarizability:1147.282   0.893 766.055   2.650  -3.319 241.520
 Approx polarizability:1627.195   1.3861098.696   6.830  -5.373 318.554

 Normal termination of Gaussian 09 at Sat Feb  4 08:45:22 2023.
