 Gaussian 16, Revision C.01,
 Gaussian 16:  EM64L-G16RevC.01  3-Jul-2019

 ----------------------------------------------------------------------
 #p B3LYP/gen gfinput pseudo=read Integral(Grid=UltraFine,Acc2E=12) scf
 =maxcycle=200 Polar=(DCSHG) CPHF=RdFreq scrf=(iefpcm,read,solvent=n,n-
 DiMethylFormamide)
 ----------------------------------------------------------------------

 ------------------------------
 Primeira Hiperpolarizabilidade
 ------------------------------
 Symbolic Z-matrix:
 Charge =  0 Multiplicity = 1

                         Standard orientation:
 ---------------------------------------------------------------------
 Center     Atomic      Atomic             Coordinates (Angstroms)
 Number     Number       Type             X           Y           Z
 ---------------------------------------------------------------------
      1         78           0       -1.008098   -0.002554    0.023564
      2          6           0        1.040778    0.006667    0.073725
      3          7           0       -1.351872   -2.030588    0.021851
      4          7           0       -1.371945    2.022246    0.008714
      5          6           0       -0.428755    2.975399    0.046602
      6          6           0       -0.398749   -2.973631    0.063676
      7          6           0       -2.709059    2.370497   -0.042286
      8          6           0       -2.685437   -2.392870   -0.022148
      9          6           0       -3.612802   -1.258328   -0.063032
     10          6           0       -3.625038    1.226485   -0.074159
     11          6           0       -5.026887    1.184638   -0.123314
     12          6           0       -3.072336    3.724957   -0.058798
     13          6           0       -2.092344    4.709726   -0.020417
     14          6           0       -0.744979    4.330839    0.035451
     15          6           0       -5.014989   -1.230646   -0.112194
     16          6           0       -5.723602   -0.026574   -0.142658
     17          6           0       -3.034925   -3.751150   -0.020208
     18          6           0       -2.044755   -4.725434    0.024916
     19          1           0       -4.086756   -4.028898   -0.051962
     20          6           0       -0.700943   -4.332187    0.066180
     21          6           0       -2.958548   -0.012536   -0.045884
     22          9           0       -5.721231   -2.369921   -0.130392
     23          9           0       -5.744306    2.316719   -0.152261
     24          1           0        0.628075   -2.608296    0.098527
     25          6           0        0.398456   -5.362280    0.086817
     26          1           0       -2.317869   -5.782506    0.030833
     27          1           0        0.601877    2.621014    0.083278
     28          6           0        0.341059    5.372771    0.108014
     29          1           0       -4.126636    3.991341   -0.102923
     30          1           0       -2.375743    5.763900   -0.037457
     31          6           0        2.277388    0.010047    0.060642
     32          6           0        3.707803    0.013889    0.028194
     33          6           0        4.447523    1.218101   -0.023999
     34          6           0        4.455580   -1.186484    0.034584
     35          6           0        5.837091    1.229508   -0.071927
     36          6           0        5.845235   -1.190853   -0.012570
     37          6           0        6.585491    0.021156   -0.070201
     38          7           0        7.961809    0.024529   -0.122795
     39          1           0       -6.813007   -0.032125   -0.180343
     40          9           0        0.164122    6.329015   -0.821111
     41          9           0        1.561974    4.845788   -0.078463
     42          9           0        0.351159    5.992134    1.303574
     43          9           0        1.600000   -4.815854    0.333542
     44          9           0        0.487574   -6.010889   -1.089708
     45          9           0        0.175966   -6.297350    1.027787
     46          1           0        3.910527    2.170366   -0.029839
     47          1           0        6.346824    2.191499   -0.112978
     48          1           0        6.361574   -2.150201   -0.005956
     49          1           0        3.925014   -2.141478    0.075718
     50          6           0        8.685382    1.280513   -0.185956
     51          6           0        8.693844   -1.228146   -0.124189
     52          1           0        8.491668    1.917745    0.696229
     53          1           0        8.422404    1.868758   -1.084316
     54          1           0        9.762669    1.077961   -0.222194
     55          1           0        8.432484   -1.862719   -0.990876
     56          1           0        8.506737   -1.821220    0.789689
     57          1           0        9.769630   -1.020470   -0.173730
 ---------------------------------------------------------------------

 SCF Done:  E(RB3LYP) =  -2158.13853212     A.U. after   15 cycles

 The electronic state is 1-A.
 Alpha  occ. eigenvalues --  -24.73425 -24.73420 -24.72964 -24.72953 -24.72759
 Alpha  occ. eigenvalues --  -24.72751 -24.72548 -24.72546 -14.41021 -14.41017
 Alpha  occ. eigenvalues --  -14.34843 -10.45003 -10.45003 -10.30558 -10.30558
 Alpha  occ. eigenvalues --  -10.27664 -10.27662 -10.26629 -10.26620 -10.24161
 Alpha  occ. eigenvalues --  -10.24156 -10.23848 -10.23846 -10.22988 -10.22752
 Alpha  occ. eigenvalues --  -10.22747 -10.21809 -10.21802 -10.21775 -10.21773
 Alpha  occ. eigenvalues --  -10.21329 -10.20407 -10.19673 -10.19010 -10.19008
 Alpha  occ. eigenvalues --  -10.18328 -10.18327 -10.15525 -10.14798  -3.94463
 Alpha  occ. eigenvalues --   -2.19931  -2.19557  -2.16021  -1.31064  -1.31064
 Alpha  occ. eigenvalues --   -1.23493  -1.23443  -1.22023  -1.22021  -1.21503
 Alpha  occ. eigenvalues --   -1.21502  -0.99226  -0.98838  -0.94276  -0.88483
 Alpha  occ. eigenvalues --   -0.84960  -0.84885  -0.83997  -0.82626  -0.81388
 Alpha  occ. eigenvalues --   -0.77063  -0.77022  -0.75802  -0.74181  -0.72212
 Alpha  occ. eigenvalues --   -0.71674  -0.71264  -0.69877  -0.68038  -0.67547
 Alpha  occ. eigenvalues --   -0.66956  -0.66357  -0.65211  -0.63442  -0.62888
 Alpha  occ. eigenvalues --   -0.60689  -0.60512  -0.60398  -0.60389  -0.60175
 Alpha  occ. eigenvalues --   -0.59720  -0.59690  -0.58167  -0.57699  -0.55978
 Alpha  occ. eigenvalues --   -0.55501  -0.53696  -0.53456  -0.52807  -0.52226
 Alpha  occ. eigenvalues --   -0.50209  -0.50147  -0.49048  -0.48862  -0.48735
 Alpha  occ. eigenvalues --   -0.48497  -0.48221  -0.48122  -0.48098  -0.47911
 Alpha  occ. eigenvalues --   -0.47740  -0.47414  -0.46361  -0.46322  -0.45920
 Alpha  occ. eigenvalues --   -0.45809  -0.45474  -0.45156  -0.44421  -0.44097
 Alpha  occ. eigenvalues --   -0.44093  -0.44031  -0.43953  -0.43882  -0.42681
 Alpha  occ. eigenvalues --   -0.42112  -0.42107  -0.41952  -0.41114  -0.40947
 Alpha  occ. eigenvalues --   -0.40712  -0.40380  -0.39934  -0.39384  -0.39094
 Alpha  occ. eigenvalues --   -0.38646  -0.38578  -0.37851  -0.37793  -0.37585
 Alpha  occ. eigenvalues --   -0.36187  -0.34728  -0.33873  -0.33494  -0.33131
 Alpha  occ. eigenvalues --   -0.32034  -0.31059  -0.30202  -0.29843  -0.28716
 Alpha  occ. eigenvalues --   -0.26574  -0.25794  -0.25668  -0.24720  -0.24651
 Alpha  occ. eigenvalues --   -0.23330  -0.23151  -0.18277
 Alpha virt. eigenvalues --   -0.09435  -0.09032  -0.05883  -0.05543  -0.02470
 Alpha virt. eigenvalues --   -0.01792  -0.00772  -0.00541   0.00718   0.00913
 Alpha virt. eigenvalues --    0.02529   0.03180   0.03562   0.06127   0.06672

 Mulliken charges:
               1
     1  Pt   0.140595
     2  C   -0.332508
     3  N   -0.299767
     4  N   -0.299696
     5  C    0.154759
     6  C    0.154880
     7  C    0.168520
     8  C    0.168580
     9  C    0.080179
    10  C    0.080331
    11  C    0.229863
    12  C   -0.037977
    13  C    0.099331
    14  C   -0.136980
    15  C    0.229845
    16  C   -0.142883
    17  C   -0.037911
    18  C    0.099172
    19  H    0.018808
    20  C   -0.136849
    21  C   -0.184595
    22  F   -0.184412
    23  F   -0.184427
    24  H    0.066510
    25  C    0.560065
    26  H    0.034265
    27  H    0.066656
    28  C    0.560077
    29  H    0.018793
    30  H    0.034147
    31  C    0.038943
    32  C   -0.039246
    33  C   -0.019018
    34  C   -0.019059
    35  C   -0.087317
    36  C   -0.087284
    37  C    0.208636
    38  N   -0.312258
    39  H    0.014096
    40  F   -0.173583
    41  F   -0.164617
    42  F   -0.172848
    43  F   -0.164492
    44  F   -0.172996
    45  F   -0.173703
    46  H   -0.020903
    47  H   -0.024579
    48  H   -0.024582
    49  H   -0.020954
    50  C    0.131569
    51  C    0.131593
    52  H    0.025663
    53  H    0.025391
    54  H    0.031560
    55  H    0.025451
    56  H    0.025603
    57  H    0.031566
 Sum of Mulliken charges =  -0.00000

 Dipole moment (field-independent basis, Debye):
    X=             -3.9070    Y=             -0.0294    Z=             -0.4365  Tot=              3.9315
 Quadrupole moment (field-independent basis, Debye-Ang):
   XX=           -165.3736   YY=           -219.1973   ZZ=           -249.9010
   XY=              0.1623   XZ=             -1.2822   YZ=             -1.0142

  Exact polarizability:     907.611       0.440     686.363       2.471      -2.991     249.104
 Approx polarizability:     983.955       0.495     768.655       4.909      -3.729     295.327

 Normal termination of Gaussian 16 at Wed Jul 24 19:35:07 2024.
