 Gaussian 16, Revision C.01,
 Gaussian 16:  EM64L-G16RevC.01  3-Jul-2019

 ----------------------------------------------------------------------
 #p tHCTH/gen gfinput pseudo=read scf=maxcycle=200 Polar=(DCSHG) CPHF=R
 dFreq scrf=(iefpcm,read,solvent=n,n-DiMethylFormamide)
 ----------------------------------------------------------------------

 ------------------------------
 Primeira Hiperpolarizabilidade
 ------------------------------
 Symbolic Z-matrix:
 Charge =  0 Multiplicity = 1

                         Standard orientation:
 ---------------------------------------------------------------------
 Center     Atomic      Atomic             Coordinates (Angstroms)
 Number     Number       Type             X           Y           Z
 ---------------------------------------------------------------------
      1         78           0       -1.008098   -0.002554    0.023564
      2          6           0        1.040778    0.006667    0.073725
      3          7           0       -1.351872   -2.030588    0.021851
      4          7           0       -1.371945    2.022246    0.008714
      5          6           0       -0.428755    2.975399    0.046602
      6          6           0       -0.398749   -2.973631    0.063676
      7          6           0       -2.709059    2.370497   -0.042286
      8          6           0       -2.685437   -2.392870   -0.022148
      9          6           0       -3.612802   -1.258328   -0.063032
     10          6           0       -3.625038    1.226485   -0.074159
     11          6           0       -5.026887    1.184638   -0.123314
     12          6           0       -3.072336    3.724957   -0.058798
     13          6           0       -2.092344    4.709726   -0.020417
     14          6           0       -0.744979    4.330839    0.035451
     15          6           0       -5.014989   -1.230646   -0.112194
     16          6           0       -5.723602   -0.026574   -0.142658
     17          6           0       -3.034925   -3.751150   -0.020208
     18          6           0       -2.044755   -4.725434    0.024916
     19          1           0       -4.086756   -4.028898   -0.051962
     20          6           0       -0.700943   -4.332187    0.066180
     21          6           0       -2.958548   -0.012536   -0.045884
     22          9           0       -5.721231   -2.369921   -0.130392
     23          9           0       -5.744306    2.316719   -0.152261
     24          1           0        0.628075   -2.608296    0.098527
     25          6           0        0.398456   -5.362280    0.086817
     26          1           0       -2.317869   -5.782506    0.030833
     27          1           0        0.601877    2.621014    0.083278
     28          6           0        0.341059    5.372771    0.108014
     29          1           0       -4.126636    3.991341   -0.102923
     30          1           0       -2.375743    5.763900   -0.037457
     31          6           0        2.277388    0.010047    0.060642
     32          6           0        3.707803    0.013889    0.028194
     33          6           0        4.447523    1.218101   -0.023999
     34          6           0        4.455580   -1.186484    0.034584
     35          6           0        5.837091    1.229508   -0.071927
     36          6           0        5.845235   -1.190853   -0.012570
     37          6           0        6.585491    0.021156   -0.070201
     38          7           0        7.961809    0.024529   -0.122795
     39          1           0       -6.813007   -0.032125   -0.180343
     40          9           0        0.164122    6.329015   -0.821111
     41          9           0        1.561974    4.845788   -0.078463
     42          9           0        0.351159    5.992134    1.303574
     43          9           0        1.600000   -4.815854    0.333542
     44          9           0        0.487574   -6.010889   -1.089708
     45          9           0        0.175966   -6.297350    1.027787
     46          1           0        3.910527    2.170366   -0.029839
     47          1           0        6.346824    2.191499   -0.112978
     48          1           0        6.361574   -2.150201   -0.005956
     49          1           0        3.925014   -2.141478    0.075718
     50          6           0        8.685382    1.280513   -0.185956
     51          6           0        8.693844   -1.228146   -0.124189
     52          1           0        8.491668    1.917745    0.696229
     53          1           0        8.422404    1.868758   -1.084316
     54          1           0        9.762669    1.077961   -0.222194
     55          1           0        8.432484   -1.862719   -0.990876
     56          1           0        8.506737   -1.821220    0.789689
     57          1           0        9.769630   -1.020470   -0.173730
 ---------------------------------------------------------------------

 SCF Done:  E(RtHCTH) =  -2157.69019763     A.U. after   16 cycles

 The electronic state is 1-A.
 Alpha  occ. eigenvalues --  -24.29255 -24.29250 -24.28829 -24.28820 -24.28643
 Alpha  occ. eigenvalues --  -24.28637 -24.28635 -24.28634 -14.08990 -14.08989
 Alpha  occ. eigenvalues --  -14.03353 -10.17283 -10.17282 -10.03150 -10.03149
 Alpha  occ. eigenvalues --  -10.00206 -10.00204  -9.99147  -9.99139  -9.96698
 Alpha  occ. eigenvalues --   -9.96694  -9.96563  -9.96562  -9.95857  -9.95525
 Alpha  occ. eigenvalues --   -9.95521  -9.94944  -9.94938  -9.94696  -9.94695
 Alpha  occ. eigenvalues --   -9.94145  -9.93690  -9.92728  -9.91984  -9.91982
 Alpha  occ. eigenvalues --   -9.91411  -9.91409  -9.88687  -9.88374  -3.80127
 Alpha  occ. eigenvalues --   -2.06757  -2.06439  -2.03141  -1.21907  -1.21906
 Alpha  occ. eigenvalues --   -1.14701  -1.14653  -1.13084  -1.13083  -1.12590
 Alpha  occ. eigenvalues --   -1.12588  -0.92079  -0.91717  -0.87590  -0.81802
 Alpha  occ. eigenvalues --   -0.78377  -0.78313  -0.77533  -0.76235  -0.75063
 Alpha  occ. eigenvalues --   -0.70948  -0.70886  -0.69836  -0.68258  -0.66356
 Alpha  occ. eigenvalues --   -0.65798  -0.65655  -0.64186  -0.62477  -0.61878
 Alpha  occ. eigenvalues --   -0.61420  -0.60797  -0.59872  -0.58077  -0.57607
 Alpha  occ. eigenvalues --   -0.55291  -0.55190  -0.54968  -0.54964  -0.54862
 Alpha  occ. eigenvalues --   -0.54654  -0.54373  -0.53261  -0.52825  -0.50981
 Alpha  occ. eigenvalues --   -0.50624  -0.48941  -0.48903  -0.48176  -0.47440
 Alpha  occ. eigenvalues --   -0.45983  -0.44951  -0.44598  -0.44412  -0.43956
 Alpha  occ. eigenvalues --   -0.43600  -0.43573  -0.43190  -0.42553  -0.42520
 Alpha  occ. eigenvalues --   -0.42310  -0.42240  -0.42046  -0.41863  -0.41620
 Alpha  occ. eigenvalues --   -0.41505  -0.40777  -0.40765  -0.40212  -0.39937
 Alpha  occ. eigenvalues --   -0.38853  -0.38843  -0.38823  -0.38598  -0.38541
 Alpha  occ. eigenvalues --   -0.37868  -0.36905  -0.36697  -0.36672  -0.36641
 Alpha  occ. eigenvalues --   -0.36513  -0.36045  -0.36041  -0.35388  -0.34961
 Alpha  occ. eigenvalues --   -0.34778  -0.34224  -0.34132  -0.34014  -0.33937
 Alpha  occ. eigenvalues --   -0.32463  -0.31541  -0.30582  -0.30327  -0.30206
 Alpha  occ. eigenvalues --   -0.28809  -0.28197  -0.27010  -0.26548  -0.25635
 Alpha  occ. eigenvalues --   -0.23996  -0.23371  -0.23255  -0.22275  -0.21867
 Alpha  occ. eigenvalues --   -0.20816  -0.20486  -0.16530
 Alpha virt. eigenvalues --   -0.12018  -0.11601  -0.08951  -0.08625  -0.05440
 Alpha virt. eigenvalues --   -0.05378  -0.03964  -0.03627  -0.02795   0.00669
 Alpha virt. eigenvalues --    0.01436   0.01927   0.02775   0.03406   0.03517

 Mulliken charges:
               1
     1  Pt   0.757180
     2  C   -0.500892
     3  N   -0.390936
     4  N   -0.390932
     5  C    0.193635
     6  C    0.193573
     7  C    0.183637
     8  C    0.183717
     9  C   -0.009208
    10  C   -0.009036
    11  C    0.287534
    12  C   -0.043383
    13  C    0.111385
    14  C   -0.211226
    15  C    0.287516
    16  C   -0.159227
    17  C   -0.043309
    18  C    0.111298
    19  H    0.032862
    20  C   -0.211143
    21  C   -0.378592
    22  F   -0.192096
    23  F   -0.192109
    24  H    0.063084
    25  C    0.612095
    26  H    0.042274
    27  H    0.063042
    28  C    0.612091
    29  H    0.032841
    30  H    0.042190
    31  C   -0.059926
    32  C   -0.061584
    33  C   -0.013163
    34  C   -0.013279
    35  C   -0.091242
    36  C   -0.091189
    37  C    0.212064
    38  N   -0.370440
    39  H    0.030366
    40  F   -0.180551
    41  F   -0.172835
    42  F   -0.179953
    43  F   -0.172732
    44  F   -0.180072
    45  F   -0.180672
    46  H   -0.006941
    47  H   -0.006466
    48  H   -0.006474
    49  H   -0.006930
    50  C    0.114001
    51  C    0.114001
    52  H    0.039922
    53  H    0.039667
    54  H    0.043476
    55  H    0.039733
    56  H    0.039870
    57  H    0.043483
 Sum of Mulliken charges =  -0.00000

 Dipole moment (field-independent basis, Debye):
    X=             -2.8019    Y=             -0.0254    Z=             -0.4368  Tot=              2.8359
 Quadrupole moment (field-independent basis, Debye-Ang):
   XX=           -156.4784   YY=           -217.7235   ZZ=           -247.6985
   XY=              0.1871   XZ=             -1.3301   YZ=             -0.9772

  Exact polarizability:    1135.792       0.930     753.351       2.076      -3.164     248.841
 Approx polarizability:    1597.894       1.409    1071.950       6.478      -5.185     329.667

 Normal termination of Gaussian 16 at Sun May  7 05:36:58 2023.
