 Gaussian 16, Revision C.01,
 Gaussian 16:  EM64L-G16RevC.01  3-Jul-2019

 ----------------------------------------------------------------------
 #p tHCTHhyb/gen gfinput pseudo=read scf=maxcycle=200 Polar=(DCSHG) CPH
 F=RdFreq scrf=(iefpcm,read,solvent=n,n-DiMethylFormamide)
 ----------------------------------------------------------------------

 ------------------------------
 Primeira Hiperpolarizabilidade
 ------------------------------
 Symbolic Z-matrix:
 Charge =  0 Multiplicity = 1

                         Standard orientation:
 ---------------------------------------------------------------------
 Center     Atomic      Atomic             Coordinates (Angstroms)
 Number     Number       Type             X           Y           Z
 ---------------------------------------------------------------------
      1         78           0       -1.008098   -0.002554    0.023564
      2          6           0        1.040778    0.006667    0.073725
      3          7           0       -1.351872   -2.030588    0.021851
      4          7           0       -1.371945    2.022246    0.008714
      5          6           0       -0.428755    2.975399    0.046602
      6          6           0       -0.398749   -2.973631    0.063676
      7          6           0       -2.709059    2.370497   -0.042286
      8          6           0       -2.685437   -2.392870   -0.022148
      9          6           0       -3.612802   -1.258328   -0.063032
     10          6           0       -3.625038    1.226485   -0.074159
     11          6           0       -5.026887    1.184638   -0.123314
     12          6           0       -3.072336    3.724957   -0.058798
     13          6           0       -2.092344    4.709726   -0.020417
     14          6           0       -0.744979    4.330839    0.035451
     15          6           0       -5.014989   -1.230646   -0.112194
     16          6           0       -5.723602   -0.026574   -0.142658
     17          6           0       -3.034925   -3.751150   -0.020208
     18          6           0       -2.044755   -4.725434    0.024916
     19          1           0       -4.086756   -4.028898   -0.051962
     20          6           0       -0.700943   -4.332187    0.066180
     21          6           0       -2.958548   -0.012536   -0.045884
     22          9           0       -5.721231   -2.369921   -0.130392
     23          9           0       -5.744306    2.316719   -0.152261
     24          1           0        0.628075   -2.608296    0.098527
     25          6           0        0.398456   -5.362280    0.086817
     26          1           0       -2.317869   -5.782506    0.030833
     27          1           0        0.601877    2.621014    0.083278
     28          6           0        0.341059    5.372771    0.108014
     29          1           0       -4.126636    3.991341   -0.102923
     30          1           0       -2.375743    5.763900   -0.037457
     31          6           0        2.277388    0.010047    0.060642
     32          6           0        3.707803    0.013889    0.028194
     33          6           0        4.447523    1.218101   -0.023999
     34          6           0        4.455580   -1.186484    0.034584
     35          6           0        5.837091    1.229508   -0.071927
     36          6           0        5.845235   -1.190853   -0.012570
     37          6           0        6.585491    0.021156   -0.070201
     38          7           0        7.961809    0.024529   -0.122795
     39          1           0       -6.813007   -0.032125   -0.180343
     40          9           0        0.164122    6.329015   -0.821111
     41          9           0        1.561974    4.845788   -0.078463
     42          9           0        0.351159    5.992134    1.303574
     43          9           0        1.600000   -4.815854    0.333542
     44          9           0        0.487574   -6.010889   -1.089708
     45          9           0        0.175966   -6.297350    1.027787
     46          1           0        3.910527    2.170366   -0.029839
     47          1           0        6.346824    2.191499   -0.112978
     48          1           0        6.361574   -2.150201   -0.005956
     49          1           0        3.925014   -2.141478    0.075718
     50          6           0        8.685382    1.280513   -0.185956
     51          6           0        8.693844   -1.228146   -0.124189
     52          1           0        8.491668    1.917745    0.696229
     53          1           0        8.422404    1.868758   -1.084316
     54          1           0        9.762669    1.077961   -0.222194
     55          1           0        8.432484   -1.862719   -0.990876
     56          1           0        8.506737   -1.821220    0.789689
     57          1           0        9.769630   -1.020470   -0.173730
 ---------------------------------------------------------------------

 SCF Done:  E(RtHCTHhyb) =  -2157.59337407     A.U. after   15 cycles

 The electronic state is 1-A.
 Alpha  occ. eigenvalues --  -24.61051 -24.61046 -24.60599 -24.60589 -24.60396
 Alpha  occ. eigenvalues --  -24.60387 -24.60286 -24.60284 -14.32509 -14.32507
 Alpha  occ. eigenvalues --  -14.26282 -10.37544 -10.37543 -10.23275 -10.23274
 Alpha  occ. eigenvalues --  -10.20477 -10.20475 -10.19399 -10.19390 -10.16843
 Alpha  occ. eigenvalues --  -10.16838 -10.16619 -10.16618 -10.15882 -10.15515
 Alpha  occ. eigenvalues --  -10.15511 -10.14632 -10.14631 -10.14506 -10.14500
 Alpha  occ. eigenvalues --  -10.14074 -10.13419 -10.12590 -10.11847 -10.11845
 Alpha  occ. eigenvalues --  -10.11194 -10.11193 -10.08521 -10.08077  -3.90277
 Alpha  occ. eigenvalues --   -2.14020  -2.13610  -2.10359  -1.29117  -1.29117
 Alpha  occ. eigenvalues --   -1.21650  -1.21600  -1.20085  -1.20083  -1.19570
 Alpha  occ. eigenvalues --   -1.19568  -0.97889  -0.97502  -0.92975  -0.87201
 Alpha  occ. eigenvalues --   -0.83672  -0.83605  -0.82775  -0.81392  -0.80164
 Alpha  occ. eigenvalues --   -0.75869  -0.75818  -0.74656  -0.73026  -0.71073
 Alpha  occ. eigenvalues --   -0.70518  -0.70133  -0.68795  -0.67002  -0.66435
 Alpha  occ. eigenvalues --   -0.65899  -0.65268  -0.64180  -0.62405  -0.61869
 Alpha  occ. eigenvalues --   -0.59606  -0.59468  -0.59293  -0.59286  -0.59142
 Alpha  occ. eigenvalues --   -0.58745  -0.58671  -0.57265  -0.56772  -0.55032
 Alpha  occ. eigenvalues --   -0.54561  -0.52771  -0.52651  -0.51923  -0.51296
 Alpha  occ. eigenvalues --   -0.49430  -0.49146  -0.48212  -0.47814  -0.47779
 Alpha  occ. eigenvalues --   -0.47690  -0.47296  -0.46960  -0.46952  -0.46928
 Alpha  occ. eigenvalues --   -0.46622  -0.46389  -0.45516  -0.45421  -0.45216
 Alpha  occ. eigenvalues --   -0.45103  -0.44528  -0.44318  -0.43594  -0.43249
 Alpha  occ. eigenvalues --   -0.43019  -0.42997  -0.42818  -0.42763  -0.41939
 Alpha  occ. eigenvalues --   -0.41138  -0.40940  -0.40934  -0.40253  -0.40109
 Alpha  occ. eigenvalues --   -0.39748  -0.39539  -0.39115  -0.38590  -0.38265
 Alpha  occ. eigenvalues --   -0.37977  -0.37729  -0.37071  -0.37038  -0.37015
 Alpha  occ. eigenvalues --   -0.35504  -0.34258  -0.33156  -0.33110  -0.32735
 Alpha  occ. eigenvalues --   -0.31512  -0.30655  -0.29573  -0.29384  -0.28411
 Alpha  occ. eigenvalues --   -0.26128  -0.25490  -0.25385  -0.24332  -0.24264
 Alpha  occ. eigenvalues --   -0.22885  -0.22758  -0.18068
 Alpha virt. eigenvalues --   -0.10403  -0.09935  -0.06900  -0.06566  -0.03490
 Alpha virt. eigenvalues --   -0.02315  -0.01823  -0.01506  -0.00354   0.02441
 Alpha virt. eigenvalues --    0.03439   0.03859   0.05625   0.05684   0.06111

 Mulliken charges:
               1
     1  Pt   0.788576
     2  C   -0.520061
     3  N   -0.379267
     4  N   -0.379225
     5  C    0.172167
     6  C    0.172228
     7  C    0.175650
     8  C    0.175730
     9  C    0.009490
    10  C    0.009617
    11  C    0.269622
    12  C   -0.054291
    13  C    0.096819
    14  C   -0.186617
    15  C    0.269577
    16  C   -0.166555
    17  C   -0.054216
    18  C    0.096714
    19  H    0.045034
    20  C   -0.186501
    21  C   -0.394397
    22  F   -0.190067
    23  F   -0.190085
    24  H    0.069389
    25  C    0.596019
    26  H    0.056855
    27  H    0.069491
    28  C    0.596033
    29  H    0.045024
    30  H    0.056760
    31  C   -0.068732
    32  C   -0.040296
    33  C   -0.029539
    34  C   -0.029639
    35  C   -0.101681
    36  C   -0.101629
    37  C    0.208156
    38  N   -0.360979
    39  H    0.041623
    40  F   -0.179598
    41  F   -0.171425
    42  F   -0.179024
    43  F   -0.171314
    44  F   -0.179144
    45  F   -0.179719
    46  H    0.004094
    47  H    0.001345
    48  H    0.001342
    49  H    0.004084
    50  C    0.088818
    51  C    0.088864
    52  H    0.045680
    53  H    0.045430
    54  H    0.051336
    55  H    0.045472
    56  H    0.045625
    57  H    0.051339
 Sum of Mulliken charges =  -0.00000

 Dipole moment (field-independent basis, Debye):
    X=             -3.4057    Y=             -0.0272    Z=             -0.4354  Tot=              3.4336
 Quadrupole moment (field-independent basis, Debye-Ang):
   XX=           -160.6524   YY=           -217.3700   ZZ=           -249.8154
   XY=              0.1713   XZ=             -1.2916   YZ=             -1.0327

  Exact polarizability:     967.991       0.564     705.794       2.467      -3.042     247.230
 Approx polarizability:    1104.596       0.663     831.555       5.372      -4.028     300.734

 Normal termination of Gaussian 16 at Sun May  7 07:47:33 2023.
