 Gaussian 09, Revision D.01,
 Gaussian 09:  EM64L-G09RevD.01 24-Apr-2013

 ----------------------------------------------------------------------
 #p wB97xD/gen gfinput pseudo=read Integral(Grid=UltraFine,Acc2E=12) sc
 f=maxcycle=200 Polar=(DCSHG) CPHF=RdFreq scrf=(iefpcm,read,solvent=n,n
 -DiMethylFormamide)
 ----------------------------------------------------------------------

 ------------------------------
 Primeira Hiperpolarizabilidade
 ------------------------------
 Symbolic Z-matrix:
 Charge =  0 Multiplicity = 1

                         Standard orientation:
 ---------------------------------------------------------------------
 Center     Atomic      Atomic             Coordinates (Angstroms)
 Number     Number       Type             X           Y           Z
 ---------------------------------------------------------------------
      1         78           0       -1.008098   -0.002554    0.023564
      2          6           0        1.040778    0.006667    0.073725
      3          7           0       -1.351872   -2.030588    0.021851
      4          7           0       -1.371945    2.022246    0.008714
      5          6           0       -0.428755    2.975399    0.046602
      6          6           0       -0.398749   -2.973631    0.063676
      7          6           0       -2.709059    2.370497   -0.042286
      8          6           0       -2.685437   -2.392870   -0.022148
      9          6           0       -3.612802   -1.258328   -0.063032
     10          6           0       -3.625038    1.226485   -0.074159
     11          6           0       -5.026887    1.184638   -0.123314
     12          6           0       -3.072336    3.724957   -0.058798
     13          6           0       -2.092344    4.709726   -0.020417
     14          6           0       -0.744979    4.330839    0.035451
     15          6           0       -5.014989   -1.230646   -0.112194
     16          6           0       -5.723602   -0.026574   -0.142658
     17          6           0       -3.034925   -3.751150   -0.020208
     18          6           0       -2.044755   -4.725434    0.024916
     19          1           0       -4.086756   -4.028898   -0.051962
     20          6           0       -0.700943   -4.332187    0.066180
     21          6           0       -2.958548   -0.012536   -0.045884
     22          9           0       -5.721231   -2.369921   -0.130392
     23          9           0       -5.744306    2.316719   -0.152261
     24          1           0        0.628075   -2.608296    0.098527
     25          6           0        0.398456   -5.362280    0.086817
     26          1           0       -2.317869   -5.782506    0.030833
     27          1           0        0.601877    2.621014    0.083278
     28          6           0        0.341059    5.372771    0.108014
     29          1           0       -4.126636    3.991341   -0.102923
     30          1           0       -2.375743    5.763900   -0.037457
     31          6           0        2.277388    0.010047    0.060642
     32          6           0        3.707803    0.013889    0.028194
     33          6           0        4.447523    1.218101   -0.023999
     34          6           0        4.455580   -1.186484    0.034584
     35          6           0        5.837091    1.229508   -0.071927
     36          6           0        5.845235   -1.190853   -0.012570
     37          6           0        6.585491    0.021156   -0.070201
     38          7           0        7.961809    0.024529   -0.122795
     39          1           0       -6.813007   -0.032125   -0.180343
     40          9           0        0.164122    6.329015   -0.821111
     41          9           0        1.561974    4.845788   -0.078463
     42          9           0        0.351159    5.992134    1.303574
     43          9           0        1.600000   -4.815854    0.333542
     44          9           0        0.487574   -6.010889   -1.089708
     45          9           0        0.175966   -6.297350    1.027787
     46          1           0        3.910527    2.170366   -0.029839
     47          1           0        6.346824    2.191499   -0.112978
     48          1           0        6.361574   -2.150201   -0.005956
     49          1           0        3.925014   -2.141478    0.075718
     50          6           0        8.685382    1.280513   -0.185956
     51          6           0        8.693844   -1.228146   -0.124189
     52          1           0        8.491668    1.917745    0.696229
     53          1           0        8.422404    1.868758   -1.084316
     54          1           0        9.762669    1.077961   -0.222194
     55          1           0        8.432484   -1.862719   -0.990876
     56          1           0        8.506737   -1.821220    0.789689
     57          1           0        9.769630   -1.020470   -0.173730
 ---------------------------------------------------------------------

 SCF Done:  E(RwB97XD) =  -2157.29914619     A.U. after   17 cycles

 The electronic state is 1-A.
 Alpha  occ. eigenvalues --  -24.86495 -24.86490 -24.86028 -24.86016 -24.85817
 Alpha  occ. eigenvalues --  -24.85808 -24.85542 -24.85540 -14.53351 -14.53349
 Alpha  occ. eigenvalues --  -14.46525 -10.56619 -10.56618 -10.42288 -10.42287
 Alpha  occ. eigenvalues --  -10.39547 -10.39544 -10.38292 -10.38283 -10.35869
 Alpha  occ. eigenvalues --  -10.35864 -10.35407 -10.35406 -10.34601 -10.34179
 Alpha  occ. eigenvalues --  -10.34174 -10.33198 -10.33197 -10.32824 -10.32817
 Alpha  occ. eigenvalues --  -10.32610 -10.32043 -10.31077 -10.30503 -10.30502
 Alpha  occ. eigenvalues --  -10.29654 -10.29653 -10.26836 -10.26305  -4.03465
 Alpha  occ. eigenvalues --   -2.25678  -2.25399  -2.22017  -1.41797  -1.41796
 Alpha  occ. eigenvalues --   -1.34075  -1.34023  -1.32596  -1.32594  -1.32068
 Alpha  occ. eigenvalues --   -1.32066  -1.09742  -1.09344  -1.04373  -0.98900
 Alpha  occ. eigenvalues --   -0.95327  -0.95238  -0.94287  -0.92926  -0.91657
 Alpha  occ. eigenvalues --   -0.87175  -0.87152  -0.85817  -0.84177  -0.82145
 Alpha  occ. eigenvalues --   -0.81601  -0.80969  -0.79608  -0.77841  -0.77305
 Alpha  occ. eigenvalues --   -0.76697  -0.76041  -0.74722  -0.73012  -0.72431
 Alpha  occ. eigenvalues --   -0.70132  -0.69965  -0.69832  -0.69822  -0.69643
 Alpha  occ. eigenvalues --   -0.69184  -0.69132  -0.67521  -0.66971  -0.65260
 Alpha  occ. eigenvalues --   -0.64772  -0.62780  -0.62619  -0.61833  -0.61268
 Alpha  occ. eigenvalues --   -0.59531  -0.59017  -0.58177  -0.58145  -0.57832
 Alpha  occ. eigenvalues --   -0.57428  -0.57386  -0.57254  -0.57103  -0.56850
 Alpha  occ. eigenvalues --   -0.56833  -0.56365  -0.55191  -0.55180  -0.55128
 Alpha  occ. eigenvalues --   -0.55109  -0.54442  -0.53955  -0.53246  -0.53225
 Alpha  occ. eigenvalues --   -0.53166  -0.53019  -0.52989  -0.52564  -0.51256
 Alpha  occ. eigenvalues --   -0.51250  -0.51078  -0.50479  -0.49670  -0.49531
 Alpha  occ. eigenvalues --   -0.49368  -0.48690  -0.48209  -0.47798  -0.47574
 Alpha  occ. eigenvalues --   -0.47375  -0.47078  -0.46612  -0.45995  -0.45946
 Alpha  occ. eigenvalues --   -0.44248  -0.43075  -0.41884  -0.41676  -0.41309
 Alpha  occ. eigenvalues --   -0.40414  -0.39199  -0.38079  -0.37652  -0.36730
 Alpha  occ. eigenvalues --   -0.33811  -0.33487  -0.33431  -0.32401  -0.31822
 Alpha  occ. eigenvalues --   -0.30875  -0.30306  -0.24957
 Alpha virt. eigenvalues --   -0.03294  -0.02963   0.00978   0.01227   0.03903
 Alpha virt. eigenvalues --    0.06071   0.06219   0.06296   0.08043   0.08341
 Alpha virt. eigenvalues --    0.09617   0.09980   0.13841   0.14020   0.14627

 Mulliken charges:
               1
     1  Pt   0.839334
     2  C   -0.516020
     3  N   -0.393694
     4  N   -0.393657
     5  C    0.176470
     6  C    0.176595
     7  C    0.192527
     8  C    0.192607
     9  C   -0.033780
    10  C   -0.033616
    11  C    0.290936
    12  C   -0.071238
    13  C    0.094804
    14  C   -0.216175
    15  C    0.290864
    16  C   -0.189030
    17  C   -0.071136
    18  C    0.094706
    19  H    0.062424
    20  C   -0.216123
    21  C   -0.371885
    22  F   -0.198383
    23  F   -0.198395
    24  H    0.078493
    25  C    0.628091
    26  H    0.077012
    27  H    0.078666
    28  C    0.628076
    29  H    0.062392
    30  H    0.076910
    31  C   -0.098370
    32  C   -0.049010
    33  C   -0.030948
    34  C   -0.031091
    35  C   -0.124814
    36  C   -0.124763
    37  C    0.217888
    38  N   -0.382897
    39  H    0.059987
    40  F   -0.187010
    41  F   -0.178684
    42  F   -0.186682
    43  F   -0.178585
    44  F   -0.186796
    45  F   -0.187153
    46  H    0.020022
    47  H    0.013783
    48  H    0.013781
    49  H    0.020051
    50  C    0.074364
    51  C    0.074432
    52  H    0.049849
    53  H    0.049592
    54  H    0.057931
    55  H    0.049618
    56  H    0.049796
    57  H    0.057933
 Sum of Mulliken charges =   0.00000

 Dipole moment (field-independent basis, Debye):
    X=             -4.3596    Y=             -0.0307    Z=             -0.4263  Tot=              4.3805
 Quadrupole moment (field-independent basis, Debye-Ang):
   XX=           -166.6386   YY=           -215.3758   ZZ=           -250.2368
   XY=              0.1423   XZ=             -1.2565   YZ=             -1.0847

  Exact polarizability: 783.122   0.208 638.848   2.766  -2.853 243.457
 Approx polarizability: 571.407   0.172 488.840   3.056  -2.242 231.139

 Normal termination of Gaussian 09 at Sat Feb  4 10:59:03 2023.
