 Gaussian 16, Revision C.01,
 Gaussian 16:  EM64L-G16RevC.01  3-Jul-2019

 ----------------------------------------------------------------------
 #p X3LYP/gen gfinput pseudo=read scf=maxcycle=200 Polar=(DCSHG) CPHF=R
 dFreq scrf=(iefpcm,read,solvent=n,n-DiMethylFormamide)
 ----------------------------------------------------------------------

 ------------------------------
 Primeira Hiperpolarizabilidade
 ------------------------------
 Symbolic Z-matrix:
 Charge =  0 Multiplicity = 1

                         Standard orientation:
 ---------------------------------------------------------------------
 Center     Atomic      Atomic             Coordinates (Angstroms)
 Number     Number       Type             X           Y           Z
 ---------------------------------------------------------------------
      1         78           0       -1.008098   -0.002554    0.023564
      2          6           0        1.040778    0.006667    0.073725
      3          7           0       -1.351872   -2.030588    0.021851
      4          7           0       -1.371945    2.022246    0.008714
      5          6           0       -0.428755    2.975399    0.046602
      6          6           0       -0.398749   -2.973631    0.063676
      7          6           0       -2.709059    2.370497   -0.042286
      8          6           0       -2.685437   -2.392870   -0.022148
      9          6           0       -3.612802   -1.258328   -0.063032
     10          6           0       -3.625038    1.226485   -0.074159
     11          6           0       -5.026887    1.184638   -0.123314
     12          6           0       -3.072336    3.724957   -0.058798
     13          6           0       -2.092344    4.709726   -0.020417
     14          6           0       -0.744979    4.330839    0.035451
     15          6           0       -5.014989   -1.230646   -0.112194
     16          6           0       -5.723602   -0.026574   -0.142658
     17          6           0       -3.034925   -3.751150   -0.020208
     18          6           0       -2.044755   -4.725434    0.024916
     19          1           0       -4.086756   -4.028898   -0.051962
     20          6           0       -0.700943   -4.332187    0.066180
     21          6           0       -2.958548   -0.012536   -0.045884
     22          9           0       -5.721231   -2.369921   -0.130392
     23          9           0       -5.744306    2.316719   -0.152261
     24          1           0        0.628075   -2.608296    0.098527
     25          6           0        0.398456   -5.362280    0.086817
     26          1           0       -2.317869   -5.782506    0.030833
     27          1           0        0.601877    2.621014    0.083278
     28          6           0        0.341059    5.372771    0.108014
     29          1           0       -4.126636    3.991341   -0.102923
     30          1           0       -2.375743    5.763900   -0.037457
     31          6           0        2.277388    0.010047    0.060642
     32          6           0        3.707803    0.013889    0.028194
     33          6           0        4.447523    1.218101   -0.023999
     34          6           0        4.455580   -1.186484    0.034584
     35          6           0        5.837091    1.229508   -0.071927
     36          6           0        5.845235   -1.190853   -0.012570
     37          6           0        6.585491    0.021156   -0.070201
     38          7           0        7.961809    0.024529   -0.122795
     39          1           0       -6.813007   -0.032125   -0.180343
     40          9           0        0.164122    6.329015   -0.821111
     41          9           0        1.561974    4.845788   -0.078463
     42          9           0        0.351159    5.992134    1.303574
     43          9           0        1.600000   -4.815854    0.333542
     44          9           0        0.487574   -6.010889   -1.089708
     45          9           0        0.175966   -6.297350    1.027787
     46          1           0        3.910527    2.170366   -0.029839
     47          1           0        6.346824    2.191499   -0.112978
     48          1           0        6.361574   -2.150201   -0.005956
     49          1           0        3.925014   -2.141478    0.075718
     50          6           0        8.685382    1.280513   -0.185956
     51          6           0        8.693844   -1.228146   -0.124189
     52          1           0        8.491668    1.917745    0.696229
     53          1           0        8.422404    1.868758   -1.084316
     54          1           0        9.762669    1.077961   -0.222194
     55          1           0        8.432484   -1.862719   -0.990876
     56          1           0        8.506737   -1.821220    0.789689
     57          1           0        9.769630   -1.020470   -0.173730
 ---------------------------------------------------------------------

 SCF Done:  E(RX3LYP) =  -2157.08777243     A.U. after   15 cycles

 The electronic state is 1-A.
 Alpha  occ. eigenvalues --  -24.76899 -24.76894 -24.76433 -24.76422 -24.76219
 Alpha  occ. eigenvalues --  -24.76210 -24.75971 -24.75969 -14.43676 -14.43674
 Alpha  occ. eigenvalues --  -14.37426 -10.47214 -10.47213 -10.32725 -10.32723
 Alpha  occ. eigenvalues --  -10.29836 -10.29833 -10.28789 -10.28780 -10.26328
 Alpha  occ. eigenvalues --  -10.26323 -10.26007 -10.26005 -10.25179 -10.24908
 Alpha  occ. eigenvalues --  -10.24904 -10.23960 -10.23953 -10.23878 -10.23877
 Alpha  occ. eigenvalues --  -10.23452 -10.22463 -10.21817 -10.21185 -10.21184
 Alpha  occ. eigenvalues --  -10.20499 -10.20498 -10.17637 -10.16940  -3.94601
 Alpha  occ. eigenvalues --   -2.16974  -2.16624  -2.13410  -1.31842  -1.31841
 Alpha  occ. eigenvalues --   -1.24217  -1.24167  -1.22779  -1.22777  -1.22255
 Alpha  occ. eigenvalues --   -1.22253  -0.99800  -0.99408  -0.94844  -0.88973
 Alpha  occ. eigenvalues --   -0.85460  -0.85390  -0.84533  -0.83103  -0.81859
 Alpha  occ. eigenvalues --   -0.77502  -0.77468  -0.76271  -0.74654  -0.72642
 Alpha  occ. eigenvalues --   -0.72107  -0.71698  -0.70300  -0.68425  -0.67955
 Alpha  occ. eigenvalues --   -0.67338  -0.66757  -0.65607  -0.63793  -0.63248
 Alpha  occ. eigenvalues --   -0.61073  -0.60888  -0.60789  -0.60778  -0.60554
 Alpha  occ. eigenvalues --   -0.60093  -0.60061  -0.58498  -0.58039  -0.56293
 Alpha  occ. eigenvalues --   -0.55803  -0.53997  -0.53767  -0.53102  -0.52524
 Alpha  occ. eigenvalues --   -0.50499  -0.50486  -0.49374  -0.49216  -0.49061
 Alpha  occ. eigenvalues --   -0.48777  -0.48578  -0.48525  -0.48430  -0.48210
 Alpha  occ. eigenvalues --   -0.48102  -0.47724  -0.46641  -0.46584  -0.46172
 Alpha  occ. eigenvalues --   -0.46074  -0.45754  -0.45436  -0.44685  -0.44452
 Alpha  occ. eigenvalues --   -0.44444  -0.44328  -0.44326  -0.44156  -0.42928
 Alpha  occ. eigenvalues --   -0.42503  -0.42498  -0.42208  -0.41362  -0.41208
 Alpha  occ. eigenvalues --   -0.40990  -0.40601  -0.40155  -0.39651  -0.39298
 Alpha  occ. eigenvalues --   -0.38890  -0.38751  -0.38062  -0.38013  -0.37798
 Alpha  occ. eigenvalues --   -0.36338  -0.34834  -0.34073  -0.33619  -0.33232
 Alpha  occ. eigenvalues --   -0.32125  -0.31171  -0.30146  -0.29852  -0.28976
 Alpha  occ. eigenvalues --   -0.26508  -0.25872  -0.25770  -0.24757  -0.24664
 Alpha  occ. eigenvalues --   -0.23314  -0.23112  -0.18288
 Alpha virt. eigenvalues --   -0.09053  -0.08623  -0.05442  -0.05103  -0.02113
 Alpha virt. eigenvalues --   -0.00559  -0.00362  -0.00031   0.01253   0.02734
 Alpha virt. eigenvalues --    0.03416   0.03861   0.06199   0.07072   0.07341

 Mulliken charges:
               1
     1  Pt   0.733462
     2  C   -0.484159
     3  N   -0.337628
     4  N   -0.337612
     5  C    0.152195
     6  C    0.152279
     7  C    0.172255
     8  C    0.172303
     9  C    0.030432
    10  C    0.030564
    11  C    0.251439
    12  C   -0.042710
    13  C    0.102704
    14  C   -0.133120
    15  C    0.251395
    16  C   -0.147615
    17  C   -0.042641
    18  C    0.102537
    19  H    0.018754
    20  C   -0.132990
    21  C   -0.364545
    22  F   -0.186094
    23  F   -0.186109
    24  H    0.047882
    25  C    0.563600
    26  H    0.033604
    27  H    0.047969
    28  C    0.563612
    29  H    0.018738
    30  H    0.033488
    31  C   -0.071429
    32  C   -0.011716
    33  C   -0.019212
    34  C   -0.019275
    35  C   -0.084797
    36  C   -0.084753
    37  C    0.206864
    38  N   -0.315429
    39  H    0.012898
    40  F   -0.174952
    41  F   -0.165768
    42  F   -0.174387
    43  F   -0.165638
    44  F   -0.174521
    45  F   -0.175081
    46  H   -0.022566
    47  H   -0.025216
    48  H   -0.025220
    49  H   -0.022597
    50  C    0.132958
    51  C    0.132982
    52  H    0.025319
    53  H    0.025045
    54  H    0.031067
    55  H    0.025105
    56  H    0.025259
    57  H    0.031072
 Sum of Mulliken charges =  -0.00000

 Dipole moment (field-independent basis, Debye):
    X=             -3.7537    Y=             -0.0283    Z=             -0.4252  Tot=              3.7778
 Quadrupole moment (field-independent basis, Debye-Ang):
   XX=           -166.9120   YY=           -219.9735   ZZ=           -249.8907
   XY=              0.1605   XZ=             -1.2859   YZ=             -1.0225

  Exact polarizability:     908.206       0.445     685.932       2.627      -3.030     242.065
 Approx polarizability:     968.571       0.490     757.515       4.920      -3.691     290.482

 Normal termination of Gaussian 16 at Sun May  7 10:51:44 2023.
